Composition,doi,Phase,Density (g/cm3),Hardness (GPa),YS (MPa) at 23 C,YS (MPa) at 1000 C,YS (MPa) at 1200 C,Test Type
Co60Cr20Ni20,10.1016/j.jallcom.2023.173000,FCC,,,441,,,T
Fe40Mn40Co10Cr10,10.1016/j.jallcom.2023.173000,FCC,,,250,,,T
Fe50Mn30Co10Cr10,10.1016/j.jallcom.2023.173000,FCC+HCP,,,328,,,T
Co20Fe30Cr25Ni25,10.1016/j.jallcom.2023.173000,FCC,,,241,,,T
Co35Fe15Cr25Ni25,10.1016/j.jallcom.2023.173000,FCC,,,271,,,T
Co25Cr25Fe25Ni25,10.1016/j.jallcom.2023.173000,FCC,,,220,,,T
Co35Cr25Fe20Ni20,10.1016/j.jallcom.2023.173000,FCC,,,260,,,T
Co45Cr25Fe15Ni15,10.1016/j.jallcom.2023.173000,FCC,,,310,,,T
Co35Cr25Fe40Ni0,10.1016/j.jallcom.2023.173000,FCC+HCP,,,450,,,T
Co35Cr25Fe25Ni15,10.1016/j.jallcom.2023.173000,FCC,,,250,,,T
Co20Cr26Fe20Ni14Mn20,10.1016/j.jallcom.2023.173000,FCC,,,450,,,T
Co20Cr20Fe20Ni20Mn20,10.1016/j.jallcom.2023.173000,FCC,,,170,,,T
Co20Cr20Fe34Ni6Mn20,10.1016/j.jallcom.2023.173000,FCC+HCP,,,200,,,T
Co20Cr20Fe40Mn20,10.1016/j.jallcom.2023.173000,FCC+HCP,,,350,,,T
Co20Cr20Fe20Ni20Mn20,10.1016/j.jallcom.2023.173000,FCC,,,199,,,T
Co35Cr20Fe15Ni15Mn15,10.1016/j.jallcom.2023.173000,FCC,,,231,,,T
Co35Cr25Fe10Ni15Mn15,10.1016/j.jallcom.2023.173000,FCC,,,305,,,T
Co20Cr20Fe20Ni20Mn20,10.1016/j.jallcom.2023.173000,FCC,,,310,,,T
Co27Cr20Fe20Ni13Mn20,10.1016/j.jallcom.2023.173000,FCC,,,360,,,T
Co30Cr20Fe20Ni10Mn20,10.1016/j.jallcom.2023.173000,FCC+HCP,,,382,,,T
Fe40Mn10Co20Cr20Ni10,10.1016/j.jallcom.2023.173000,FCC,,,375,,,T
Cr20Mn15Fe34Co20Ni11,10.1016/j.jallcom.2023.173000,FCC,,,298,,,T
Co20Cr20Ni20Fe20Mn20,10.1016/j.jallcom.2023.173000,FCC,,,405,,,T
Co50Cr20Ni20Fe5Mn5,10.1016/j.jallcom.2023.173000,FCC+HCP,,,502,,,T
CrCoNi,10.1016/j.mattod.2024.10.004,FCC,,,692,,,T
CrCoNi,10.1016/j.mattod.2024.10.004,FCC,,,822,,,T
CrCoNi,10.1016/j.mattod.2024.10.004,FCC,,,808,,,T
CrCoNi,10.1016/j.mattod.2024.10.004,FCC,,,798,,,T
Fe45Mn35Co10Cr10,10.1016/j.msea.2024.147019,FCC+HCP,,,351.1,,,T
Fe50Mn30Co10Cr10,10.1016/j.msea.2024.147019,FCC+HCP,,,223.5,,,T
Fe50Mn30Co10Cr10,10.1016/j.msea.2024.147019,FCC+HCP,,,340.5,,,T
Fe50Mn30Co10Cr10,10.1016/j.msea.2024.147019,FCC+HCP,,,319.4,,,T
Nb,10.1016/j.jallcom.2024.176290,BCC,,,240,,,
Ti,10.1016/j.jallcom.2024.176290,BCC,,,250,,,
V,10.1016/j.jallcom.2024.176290,BCC,,,450,,,
Zr,10.1016/j.jallcom.2024.176290,BCC,,,310,,,
CoCr2.5FeNi2TiW0.5,10.1016/j.jallcom.2024.174580,FCC,,,581,,,T
Ni6Cr4WFe9Ti,10.1016/j.jallcom.2024.174580,FCC,,,742,,,T
Ni6Cr4WFe9Ti,10.1016/j.jallcom.2024.174580,FCC,,,710,,,T
Ni8Cr4Co4Fe6W2,10.1016/j.jallcom.2024.174580,FCC,,,590,,,T
Ni8Cr4Co4Fe6W2,10.1016/j.jallcom.2024.174580,FCC,,,789,,,T
Re0.1Ta1.9W0.2,10.1016/j.msea.2024.147217,BCC,,,946,,,C
Re0.1Ta1.9W0.2C0.05,10.1016/j.msea.2024.147217,BCC+Ta2C,,,1034,,,C
Re0.1Ta1.9W0.2C0.25,10.1016/j.msea.2024.147217,BCC+Ta2C,,,1069,,,C
Re0.1Ta1.9W0.2C0.4,10.1016/j.msea.2024.147217,BCC+Ta2C,,,1405,,,C
Re0.1Ta1.9W0.2,10.1016/j.msea.2024.147217,BCC,,,,,345,C
Re0.1Ta1.9W0.2C0.05,10.1016/j.msea.2024.147217,BCC+Ta2C,,,,,445,C
Re0.1Ta1.9W0.2C0.25,10.1016/j.msea.2024.147217,BCC+Ta2C,,,,,710,C
Re0.1Ta1.9W0.2C0.4,10.1016/j.msea.2024.147217,BCC+Ta2C,,,,,675,C
Co44Ni44Mo9W3,10.1016/j.scriptamat.2024.116111,FCC,,,1052,,,T
Co44Ni44Mo9W3,10.1016/j.scriptamat.2024.116111,FCC,,,789,,,T
Co44Ni44Mo9W3,10.1016/j.scriptamat.2024.116111,FCC,,,571,,,T
Co44Ni44Mo9W3,10.1016/j.scriptamat.2024.116111,FCC,,,241,,,T
CoCrNi,10.1016/j.jallcom.2024.176103,FCC,,,170,,,T
CoCrNi,10.1016/j.jallcom.2024.176103,FCC,,,254,,,T
CoCrNi,10.1016/j.jallcom.2024.176103,FCC,,,1880,,,T
CoCrNi,10.1016/j.jallcom.2024.176103,FCC,,,1112,,,T
CoCrNi,10.1016/j.jallcom.2024.176103,FCC,,,200,,,T
CoCrNi,10.1016/j.jallcom.2024.176103,FCC,,,630,,,T
CoCrNi,10.1016/j.jallcom.2024.176103,FCC,,,693,,,T
CoCrNi,10.1016/j.jallcom.2024.176103,FCC,,,790,,,T
CoCrNi,10.1016/j.jallcom.2024.176103,FCC,,,347,,,T
CoCrNi,10.1016/j.jallcom.2024.176103,FCC,,,820,,,T
CoCrNi,10.1016/j.jallcom.2024.176103,FCC,,,621,,,T
CoCrNi,10.1016/j.jallcom.2024.176103,FCC,,,689,,,T
CoCrNi,10.1016/j.jallcom.2024.176103,FCC,,,440,,,T
CoCrNi,10.1016/j.jallcom.2024.176103,FCC,,,442,,,T
CoCrNi,10.1016/j.jallcom.2024.176103,FCC,,,738,,,T
CoCrNi,10.1016/j.jallcom.2024.176103,FCC,,,768,,,T
CoCrNi,10.1016/j.jallcom.2024.176103,FCC,,,500,,,T
Co1.5CrNi1.5Al0.2Ti0.2,10.1016/j.jmst.2024.09.025,FCC+L12,,,1827,,,T
Co1.5CrNi1.5Al0.2Ti0.2,10.1016/j.jmst.2024.09.025,FCC+L12,,,2153,,,T
Co1.5CrNi1.5Al0.2Ti0.2,10.1016/j.jmst.2024.09.025,FCC+L12,,,2007,,,T
CoCrNiTi0.1,10.1016/j.msea.2024.146992,FCC,,,380,,,T
FeCoCrNi,10.1016/j.ijplas.2024.104142,FCC,,,566,,,T
FeCoCrNiMo0.1,10.1016/j.ijplas.2024.104142,FCC,,,609,,,T
FeCoCrNiMo0.3,10.1016/j.ijplas.2024.104142,FCC,,,698,,,T
FeCoCrNiMo0.5,10.1016/j.ijplas.2024.104142,FCC,,,830,,,T
Ni2.5CrFeAl0.3Ti0.2,10.1016/j.jmrt.2024.03.005,FCC,,,656,,,T
Ni2.5CrFeAl0.3Ti0.2,10.1016/j.jmrt.2024.03.005,FCC,,,910,,,T
Ni2.5CrFeAl0.3Ti0.2,10.1016/j.jmrt.2024.03.005,FCC,,,1088,,,T
Al21Co19.5Fe9.5Ni50,10.1016/j.jmst.2024.01.044,FCC,,,,681.2,,T
Al21Co19.5Fe9.5Ni50,10.1016/j.jmst.2024.01.044,FCC,,,,634.4,,T
Al21Co19.5Fe9.5Ni50,10.1016/j.jmst.2024.01.044,FCC,,,,476.3,,T
Al21Co19.5Fe9.5Ni50,10.1016/j.jmst.2024.01.044,FCC,,,,,583.5,T
Al21Co19.5Fe9.5Ni50,10.1016/j.jmst.2024.01.044,FCC,,,,,476.8,T
Al21Co19.5Fe9.5Ni50,10.1016/j.jmst.2024.01.044,FCC,,,,,389.6,T
Ni48Co33Cr9Mo4W6,10.1016/j.msea.2024.146832,FCC,,,1083,,,T
Ni48Co33Cr9Mo4W6,10.1016/j.msea.2024.146832,FCC,,,811,,,T
Ni48Co33Cr9Mo4W6,10.1016/j.msea.2024.146832,FCC,,,682,,,T
Ni48Co33Cr9Mo4W6,10.1016/j.msea.2024.146832,FCC,,,420,,,T
Ni48Co33Cr9Mo4W6,10.1016/j.msea.2024.146832,FCC,,,359,,,T
Ni48Co33Cr9Mo4W6,10.1016/j.msea.2024.146832,FCC,,,252,,,T
(CoCrNi)90Al5Ti5,10.1016/j.jmrt.2024.07.106,FCC,,,665,,,T
(CoCrNi)90Al5Ti5,10.1016/j.jmrt.2024.07.106,FCC,,,733,,,T
(CoCrNi)90Al5Ti5,10.1016/j.jmrt.2024.07.106,FCC,,,530,,,T
(CoCrNi)90Al5Ti5,10.1016/j.jmrt.2024.07.106,FCC,,,833,,,T
Ni3CrV,10.1016/j.msea.2023.145827,FCC,,,487,,,T
(Ni3CrV)97Al3,10.1016/j.msea.2023.145827,FCC,,,621,,,T
(Ni3CrV)94Al6,10.1016/j.msea.2023.145827,FCC,,,926,,,T
(Ni3CrV)91Al9,10.1016/j.msea.2023.145827,FCC,,,1151,,,T
CrFeMnNi,10.1016/j.intermet.2023.108100,FCC,,206.17,109.82,,,
Cu0.07CrFeMnNi,10.1016/j.intermet.2023.108100,FCC,,206.21,109.28,,,
Cu0.14CrFeMnNi,10.1016/j.intermet.2023.108100,FCC,,207.74,108.62,,,
Al0.15CrFeMnNi,10.1016/j.intermet.2023.108100,FCC,,204.62,119.17,,,
Al0.15Cu0.07CrFeMnNi,10.1016/j.intermet.2023.108100,FCC,,205.3,118.86,,,
Al0.15Cu0.14CrFeMnNi,10.1016/j.intermet.2023.108100,FCC,,205.42,119.72,,,
Al0.3CrFeMnNi,10.1016/j.intermet.2023.108100,FCC,,203.19,124.49,,,
Al0.3Cu0.07CrFeMnNi,10.1016/j.intermet.2023.108100,FCC,,202.93,124.19,,,
Al0.3Cu0.14CrFeMnNi,10.1016/j.intermet.2023.108100,FCC,,203.96,117.13,,,
CoCrNi,10.1016/j.compositesb.2024.111522,FCC,,,406.8,,,T
(CoCrNi)86Al7Ti7,10.1016/j.compositesb.2024.111522,FCC,,,827.5,,,T
CoCrNi,10.1016/j.compositesb.2024.111522,FCC,,,329.2,,,T
Al0.2Cr0.9FeNi2.2Ti0.2,10.1016/j.ijplas.2024.104109,FCC+L12,,,252,,,T
FeCr2V,10.1016/j.matchar.2024.113803,BCC,,213,1107,,,
FeCr2V,10.1016/j.matchar.2024.113803,BCC,,,,264,,
FeCr2VW0.1,10.1016/j.matchar.2024.113803,BCC,,229,1189,,,
FeCr2VW0.1,10.1016/j.matchar.2024.113803,BCC,,,,367,,
FeCr2VW0.3,10.1016/j.matchar.2024.113803,BCC,,238,1452,,,
FeCr2VW0.3,10.1016/j.matchar.2024.113803,BCC,,,,627,,
FeCr2VW0.5,10.1016/j.matchar.2024.113803,BCC,,,,842,,
Nb0.29Ta0.18Zr0.24Hf0.2Mo0.09,10.1016/j.scriptamat.2024.116240,BCC,,,1217,714,304,C
Nb0.26Ta0.19Zr0.19Hf0.16Mo0.2,10.1016/j.scriptamat.2024.116240,BCC,,,1501,974,669,C
Nb0.31Ta0.17Zr0.15Hf0.14Mo0.23,10.1016/j.scriptamat.2024.116240,BCC+IM,,,1487,979,710,C
Nb0.27Ta0.21Zr0.13Hf0.13Mo0.26,10.1016/j.scriptamat.2024.116240,BCC+IM,,,1547,1061,940,C
NbTaZrHfMo,10.1016/j.scriptamat.2024.116240,BCC,,,1524,927,694,C
NbTaZrHfTi,10.1016/j.scriptamat.2024.116240,BCC,,,929,295,92,C
NbTaMoWV,10.1016/j.scriptamat.2024.116240,BCC,,,1246,842,735,C
Fe28.0Co29.5Ni27.5Al8.5Ti6.5,10.1016/j.msea.2024.146422,FCC,,,792,,,T
Fe28.0Co29.5Ni27.5Al8.5Ti6.5,10.1016/j.msea.2024.146422,FCC,,,765,,,T
Fe28.0Co29.5Ni27.5Al8.5Ti6.5,10.1016/j.msea.2024.146422,FCC,,,720,,,T
Fe28.0Co29.5Ni27.5Al8.5Ti6.5,10.1016/j.msea.2024.146422,FCC,,,708,,,T
(FeCoNi)86Al7Ti7,10.1016/j.mtcomm.2024.110285,FCC,,,957.4,,,T
(FeCoNi)86Al7Ti7,10.1016/j.mtcomm.2024.110285,FCC,,,809.6,,,T
Ti2ZrNbHfV0,10.1016/j.ijrmhm.2024.106681,BCC,7.7,,613.32,,,
Ti2ZrNbHfV0.2,10.1016/j.ijrmhm.2024.106681,BCC,7.66,,709.89,,,
Ti2ZrNbHfV0.4,10.1016/j.ijrmhm.2024.106681,BCC,7.63,,826.61,,,
Ti2ZrNbHfV0.6,10.1016/j.ijrmhm.2024.106681,BCC,7.59,,859.51,,,
Ti2ZrNbHfV0.8,10.1016/j.ijrmhm.2024.106681,BCC,7.54,,946.52,,,
Ti2ZrNbHfV,10.1016/j.ijrmhm.2024.106681,BCC,7.51,,1007.84,,,
Fe60(CoCrNiMn)40,10.1016/j.matdes.2024.112720,FCC,,,417,,,T
Fe60(CoCrNiMn)40,10.1016/j.matdes.2024.112720,FCC,,,472,,,T
Fe60(CoCrNiMn)40,10.1016/j.matdes.2024.112720,FCC,,,476,,,T
Fe60(CoCrNiMn)40,10.1016/j.matdes.2024.112720,FCC,,,482,,,T
Fe60(CoCrNiMn)40,10.1016/j.matdes.2024.112720,FCC,,,480,,,T
FeCoCrNiMn,10.1016/j.matdes.2024.112720,FCC,,,520,,,T
CoCrNi,10.1016/j.jmst.2023.10.050,FCC,,,373,,,T
(CoCrNi)99Mo1,10.1016/j.jmst.2023.10.050,FCC,,,412,,,T
(CoCrNi)97Mo3,10.1016/j.jmst.2023.10.050,FCC,,,475,,,T
(CoCrNi)95Mo5,10.1016/j.jmst.2023.10.050,FCC,,,528,,,T
(CoCrNi)97Mo7,10.1016/j.jmst.2023.10.050,FCC,,,652,,,T
CoCrNi,10.1016/j.jmst.2023.10.050,FCC,,,320,,,T
(CoCrNi)97Mo3,10.1016/j.jmst.2023.10.050,FCC,,,435,,,T
(CoNi)92Mo8,10.1016/j.jmst.2023.10.050,FCC,,,296,,,T
(CoNi)85Mo15,10.1016/j.jmst.2023.10.050,FCC,,,445,,,T
(CoNi)82Mo18,10.1016/j.jmst.2023.10.050,FCC,,,545,,,T
CoCrFeNi,10.1016/j.compositesb.2024.111237,FCC,,,478,,,T
CoCrFeNi,10.1016/j.compositesb.2024.111237,FCC,,,459,,,T
CoCrFeNi,10.1016/j.compositesb.2024.111237,FCC+TiCxNy,,,730,,,T
FeCrAlTi0.25,10.1016/j.jallcom.2024.175924,BCC+B2,,,230.3,,,T
FeCrAlTi0.5,10.1016/j.jallcom.2024.175924,BCC+B2,,,370.5,,,T
FeCrAlTi0.75,10.1016/j.jallcom.2024.175924,BCC+B2,,,477.9,,,T
FeCrAlTi,10.1016/j.jallcom.2024.175924,BCC+B2,,,548.3,,,T
AlCoCrFeNi2.1,10.1016/j.jallcom.2023.173141,FCC+B2,,,766.65,,,
AlCoCrFeNi2.1,10.1016/j.jallcom.2023.173141,FCC+B2,,,779.41,,,
AlCoCrFeNi2.1,10.1016/j.jallcom.2023.173141,FCC+B2,,,749.97,,,
AlCoCrFeNi2.1,10.1016/j.jallcom.2023.173141,FCC+B2,,,770.94,,,
AlCoCrFeNi2.1,10.1016/j.jallcom.2023.173141,FCC+B2,,,715.87,,,
AlCoCrFeNi2.1,10.1016/j.jmrt.2024.09.064,FCC+B2,,,703,,,T
AlCoCrFeNi2.1,10.1016/j.jmrt.2024.09.064,FCC+B2,,,1199,,,T
Cr12Ni12Mn20Fe44,10.1016/j.jallcom.2021.163331,FCC,,,223,,,T
Cr12Ni12Mn16Fe48,10.1016/j.jallcom.2021.163331,FCC,,,230,,,T
Cr12Ni12Mn12Fe52,10.1016/j.jallcom.2021.163331,FCC,,,242,,,T
CoCrNi,10.1016/j.matdes.2022.110774,FCC,,,230,,,T
CoCrNi,10.1016/j.matdes.2022.110774,FCC,,,242,,,T
CoCrNi,10.1016/j.matdes.2022.110774,FCC,,,360,,,T
CoCrNi,10.1016/j.matdes.2022.110774,FCC,,,380,,,T
CoCrNi,10.1016/j.matdes.2022.110774,FCC,,,430,,,T
CoCrNi,10.1016/j.matdes.2022.110774,FCC,,,440,,,T
CoCrNi,10.1016/j.matdes.2022.110774,FCC,,,500,,,T
CoCrNi,10.1016/j.matdes.2022.110774,FCC,,,1100,,,T
AlCoCrFeNi2.1,10.1016/j.jmst.2021.11.049,FCC+BCC,,,492.3,,,T
AlCoCrFeNi2.1,10.1016/j.jmst.2021.11.049,FCC+BCC,,,982.1,,,T
Al0.5Ti2Nb1Zr1W0,10.1016/j.matdes.2022.111034,BCC+B2,5.6,,790,,,
Al0.5Ti2Nb1Zr1W0.3,10.1016/j.matdes.2022.111034,BCC+B2,5.9,,960,,,
Al0.5Ti2Nb1Zr1W0.5,10.1016/j.matdes.2022.111034,BCC+B2,6.2,,1160,72,,
Al0.5Ti2Nb1Zr1W0.7,10.1016/j.matdes.2022.111034,BCC+B2,6.8,,980,,,
TiNbMo0.5Al0.125,10.1016/j.msea.2022.143072,BCC,,,1002,,,C
TiNbMo0.5Al0.150,10.1016/j.msea.2022.143072,BCC+FCC,,,996,,,C
TiNbMo0.5Al0.175,10.1016/j.msea.2022.143072,BCC+FCC,,,958,,,C
TiNbMo0.5Al0.200,10.1016/j.msea.2022.143072,BCC+FCC,,,1043,,,C
TiNbMo0.5Al0.225,10.1016/j.msea.2022.143072,BCC+FCC,,,1022,,,C
TiNbMo0.5Al0.250,10.1016/j.msea.2022.143072,BCC+FCC,,,1051,,,C
CoCrFeNiW0.2,10.1016/j.jallcom.2022.164288,FCC+BCC,,,610,,,T
CoCrFeNiW0.2,10.1016/j.jallcom.2022.164288,FCC+BCC,,,407,,,T
CoCrFeNiW0.2,10.1016/j.jallcom.2022.164288,FCC+BCC,,,406,,,T
CoCrFeNiW0.2,10.1016/j.jallcom.2022.164288,FCC+BCC,,,540,,,T
CoCrFeNiW0.2,10.1016/j.jallcom.2022.164288,FCC+BCC,,,408,,,T
CoCrFeNiW0.2,10.1016/j.jallcom.2022.164288,FCC+BCC,,,384,,,T
Nb40Ti25Al15V10Ta5Hf3W2,10.1016/j.msea.2021.142290,BCC+B2,,,1024,,237,
CoCrFeNi(Al0.3Ti0.2)0.25,10.1016/j.jallcom.2022.166751,FCC+y',,,607.1,,,T
CoCrFeNi(Al0.3Ti0.2)0.5,10.1016/j.jallcom.2022.166751,FCC+y',,,820.3,,,T
CoCrFeNi(Al0.3Ti0.2)0.75,10.1016/j.jallcom.2022.166751,FCC+B2,,,954.9,,,T
CoCrFeNi(Al0.3Ti0.2)1.0,10.1016/j.jallcom.2022.166751,FCC+B2,,,855.5,,,T
HfMoNbTaTi,10.1016/j.actamat.2022.118132,,10.8,,1480,,480,
HfMoNbTiZr,10.1016/j.actamat.2022.118132,,8.73,,1660,,550,
HfNbTaTiW,10.1016/j.actamat.2022.118132,,12.4,,1570,,540,
MoNbTaTiZr,10.1016/j.actamat.2022.118132,,9.2,,1600,,550,
HfMoTaTiZr,10.1016/j.actamat.2022.118132,,10.2,,1790,,640,
HfMoNbTaZr,10.1016/j.actamat.2022.118132,,10.9,,1900,,730,
Hf20Mo20Nb20Ta20Ti20,10.1016/j.actamat.2022.118132,,10.84,,1480,,480,
Hf10Mo25Nb15Ta10Ti40,10.1016/j.actamat.2022.118132,,8.79,,1120,,300,
Hf20Mo15Nb25Ta5Ti35,10.1016/j.actamat.2022.118132,,8.99,,1140,,290,
Hf15Mo20Nb20Ta5Ti40,10.1016/j.actamat.2022.118132,,8.59,,1150,,300,
Hf15Mo20Nb15Ta10Ti40,10.1016/j.actamat.2022.118132,,9,,1180,,310,
Hf15Mo20Nb25Ta5Ti35,10.1016/j.actamat.2022.118132,,8.79,,1180,,310,
Hf15Mo20Nb30Ta5Ti30,10.1016/j.actamat.2022.118132,,8.98,,1200,,330,
Hf15Mo25Nb15Ta5Ti40,10.1016/j.actamat.2022.118132,,8.67,,1320,,380,
Hf15Mo25Nb20Ta5Ti35,10.1016/j.actamat.2022.118132,,8.86,,1350,,400,
Hf15Mo30Nb10Ta5Ti40,10.1016/j.actamat.2022.118132,,8.74,,1490,,470,
Hf15Mo35Nb5Ta5Ti40,10.1016/j.actamat.2022.118132,,8.81,,1650,,,
Hf25Mo25Nb25Ti25,10.1016/j.actamat.2022.118132,,9.46,,1660,,,
Hf20Mo15Nb30Ti35,10.1016/j.actamat.2022.118132,,8.6,,1110,,,
Hf15Mo20Nb25Ti40,10.1016/j.actamat.2022.118132,,8.2,,1130,,,
Hf20Mo15Nb35Ti30,10.1016/j.actamat.2022.118132,,8.8,,1140,,,
Hf15Mo20Nb30Ti35,10.1016/j.actamat.2022.118132,,8.38,,1150,,,
Hf20Mo15Nb40Ti25,10.1016/j.actamat.2022.118132,,8.98,,1160,,,
Hf15Mo20Nb35Ti30,10.1016/j.actamat.2022.118132,,8.58,,1180,,,
Hf15Mo25Nb20Ti40,10.1016/j.actamat.2022.118132,,8.26,,1290,,,
Hf20Mo20Nb25Ti35,10.1016/j.actamat.2022.118132,,8.67,,1300,,,
Hf15Mo25Nb25Ti35,10.1016/j.actamat.2022.118132,,8.45,,1320,,,
Hf20Mo20Nb30Ti30,10.1016/j.actamat.2022.118132,,8.86,,1320,,,
Hf15Mo25Nb30Ti30,10.1016/j.actamat.2022.118132,,8.65,,1350,,,
Hf15Mo30Nb15Ti40,10.1016/j.actamat.2022.118132,,8.33,,1460,,,
Hf20Mo25Nb20Ti35,10.1016/j.actamat.2022.118132,,8.74,,1480,,,
Hf20Mo25Nb25Ti30,10.1016/j.actamat.2022.118132,,8.93,,1510,,,
Hf20Mo30Nb15Ti35,10.1016/j.actamat.2022.118132,,8.81,,1670,,,
(CoCrNi)95Mo5,10.1016/j.msea.2022.143129,FCC,,,790,,,T
(CoCrNi)95Mo5,10.1016/j.msea.2022.143129,FCC,,,800,,,T
(Co1.5FeNi)88.5Ti6Al4,10.1016/j.matdes.2022.111061,FCC+L12,,,750,,,T
(Co1.5FeNi)88.5Ti6Al4Hf1.5,10.1016/j.matdes.2022.111061,FCC+L12,,,850,,,T
(Co1.5FeNi)88.5Ti6Al4W1.5,10.1016/j.matdes.2022.111061,FCC+L12,,,900,,,T
(Co1.5FeNi)88.5Ti6Al4Nb1.5,10.1016/j.matdes.2022.111061,FCC+L12,,,1100,,,T
(Co1.5FeNi)88.5Ti6Al4Ta1.5,10.1016/j.matdes.2022.111061,FCC+L12,,,950,,,T
(Co1.5FeNi)88.5Ti6Al4Mo1.5,10.1016/j.matdes.2022.111061,FCC+L12,,,1000,,,T
(Co1.5FeNi)88.5Ti6Al4V1.5,10.1016/j.matdes.2022.111061,FCC+L12,,,800,,,T
Fe4Ni4Mn2CrTi (as-cast),10.1016/j.msea.2023.145223,FCC+Laves+n,,,1107,,,T
Fe4Ni4Mn2CrTi (homogenized),10.1016/j.msea.2023.145223,FCC,,,392,,,T
Fe4Ni4Mn2CrTi (PDA-1050-15s),10.1016/j.msea.2023.145223,FCC+n,,,756,,,T
Fe4Ni4Mn2CrTi (PDA-1100-18s),10.1016/j.msea.2023.145223,FCC,,,562,,,T
Fe65Ni15Co8Mn8Ti3Si,10.1016/j.addma.2023.103421,FCC+BCC,,,403,,,T
Fe65Ni15Co8Mn8Ti3Si,10.1016/j.addma.2023.103421,FCC,,,285,,,T
Al5Mo5Nb36Hf13Ti41,10.1016/j.jallcom.2023.168821,BCC,,,680,,,
Al5Mo7Nb36Hf13Ti39,10.1016/j.jallcom.2023.168821,BCC,,,820,,,
Al5Mo5Nb36Hf13Ti41,10.1016/j.jallcom.2023.168821,BCC,,,892,,,
Al5Mo7Nb36Hf13Ti39,10.1016/j.jallcom.2023.168821,BCC,,,900,,,
Al5Mo5Nb36Hf13Ti41,10.1016/j.jallcom.2023.168821,BCC,,,1128,,,
Al5Mo7Nb36Hf13Ti39,10.1016/j.jallcom.2023.168821,BCC,,,1128,,,
Cr18Fe18Co28Ni28Al4Ti4,10.1016/j.jmrt.2023.10.018,FCC,,,1454,,,T
Cr18Fe18Co28Ni28Al4Ti4,10.1016/j.jmrt.2023.10.018,FCC,,,346,,,T
CoCrFeNi2Al0.3Ti0.25,10.1016/j.msea.2022.144286,FCC+L12,,,2200,,,T
CoCrFeNi2Al0.3Ti0.25,10.1016/j.msea.2022.144286,FCC+L12,,,1900,,,T
CoCrFeNi2Al0.3Ti0.25,10.1016/j.msea.2022.144286,FCC+L12,,,1647,,,T
Ti19Zr19Hf19Nb19Fe5Be19,10.1016/j.intermet.2022.107755,BCC+Amorphous,,,1403,,,T
Ti19Zr19Hf19Nb19Co5Be19,10.1016/j.intermet.2022.107755,BCC+Amorphous,,,1312,,,T
Ti19Zr19Hf19Nb19Ni5Be19,10.1016/j.intermet.2022.107755,BCC+Amorphous,,,1284,,,T
Ti19Zr19Hf19Nb19Cu5Be19,10.1016/j.intermet.2022.107755,BCC+Amorphous,,,1259,,,T
FeCrMnV,10.1016/j.matdes.2022.111565,FCC,,,187,,,T
FeCrMnVSi0.5,10.1016/j.matdes.2022.111565,FCC,,,211,,,T
FeCrMnVSi1.0,10.1016/j.matdes.2022.111565,FCC,,,199,,,T
FeCrMnVSi1.5,10.1016/j.matdes.2022.111565,FCC,,,262,,,T
FeCrMnVSi2.0,10.1016/j.matdes.2022.111565,FCC,,,216,,,T
Ni0.6CoFe1.4,10.1016/j.matchar.2023.113305,BCC,,,597.8,,,T
Al0.1Ni0.6CoFe1.4,10.1016/j.matchar.2023.113305,BCC+B2,,,754.4,,,T
Al0.2Ni0.6CoFe1.4,10.1016/j.matchar.2023.113305,BCC+B2,,,829.3,,,T
CoCrNi,10.1016/j.msea.2023.145600,FCC+BCC,,,411,,,T
(CoCrNi)99Ta1,10.1016/j.msea.2023.145600,FCC+BCC,,,470,,,T
(CoCrNi)98Ta2,10.1016/j.msea.2023.145600,FCC+BCC,,,679,,,T
(CoCrNi)97Ta3,10.1016/j.msea.2023.145600,FCC+BCC,,,1022,,,T
Co40Fe25V20Ni15,10.1016/j.jallcom.2023.169745,FCC,,,,373,,T
NiCoCrFeAlW,10.1016/j.jmrt.2024.10.147,FCC,,,634,,,T
NiCoCrFeAlW,10.1016/j.jmrt.2024.10.147,FCC,,,496,,,T
NiCoCrFeAlW,10.1016/j.jmrt.2024.10.147,FCC,,,542,,,T
NiCoCrFeAlW,10.1016/j.jmrt.2024.10.147,FCC,,,643,,,T
NiCoCrFeAlW,10.1016/j.jmrt.2024.10.147,FCC,,,490,,,T
NiCoCrFeAlW,10.1016/j.jmrt.2024.10.147,FCC,,,480,,,T
FeCoNiCrMo,10.1016/j.jallcom.2024.173435,,,119.69,963.6,,,T
FeCoNiCrMo,10.1016/j.jallcom.2024.173435,,,102.55,1039.4,,,T
FeCoNiCrMo,10.1016/j.jallcom.2024.173435,,,92.47,1053.6,,,T
FeCoNiCrMo,10.1016/j.jallcom.2024.173435,,,77.29,872.3,,,T
FeCoNiCrMo,10.1016/j.jallcom.2024.173435,,,75.46,861.7,,,T
Ni43.9Co22.4Fe8.8Al10.7Ti11.7B2.5,10.1016/j.compositesb.2024.111556,L12+HCP,,,1203.7,,,T
Ni43.9Co22.4Fe8.8Al10.7Ti11.7B2.5,10.1016/j.compositesb.2024.111556,L12+HCP,,,1187.6,,,T
Ni43.9Co22.4Fe8.8Al10.7Ti11.7B2.5,10.1016/j.compositesb.2024.111556,L12+HCP,,,1163.5,,,T
Ni43.9Co22.4Fe8.8Al10.7Ti11.7B2.5,10.1016/j.compositesb.2024.111556,L12+HCP,,,1191.5,,,T
Ti0.4Zr0.4Nb0.1Ta0.1,10.1016/j.msea.2024.146922,BCC,6.93,59,819,,,T
Ti0.486V0.375Ta0.028Cr0.111,10.1016/j.msea.2024.146922,BCC,5.65,95,879,,,T
Fe40Cr35Ni20Al5,10.1016/j.intermet.2024.108542,BCC+FCC,,,904,,,T
Fe40Cr35Ni20Al5,10.1016/j.intermet.2024.108542,BCC+FCC,,,805,,,T
Al9.0Hf30.3Ta30.3Ti30.3,10.1016/j.msea.2024.147375,BCC,,,1029,,,
Al9.0Hf30.3Nb10.0Ta20.3Ti30.3,10.1016/j.msea.2024.147375,BCC,,,984,,,
Al9.0Hf30.3Nb15.0Ta15.3Ti30.3,10.1016/j.msea.2024.147375,BCC,,,931,,,
HfNbTaTi,10.1016/j.msea.2024.147375,BCC,,,729,,,
HfNbTaTiV0.5,10.1016/j.msea.2024.147375,BCC,,,869,,,
HfNbTaTiV,10.1016/j.msea.2024.147375,BCC,,,997,,,
Ti3Zr1.5Nb,10.1016/j.msea.2024.147375,BCC,,,505,,,
Ti3Zr1.5NbV1,10.1016/j.msea.2024.147375,BCC,,,708,,,
Ti3Zr1.5NbV2,10.1016/j.msea.2024.147375,BCC,,,974,,,
VNbTaTi,10.1016/j.msea.2024.147375,BCC,,,727,,,
VNbTaTi1.5,10.1016/j.msea.2024.147375,BCC,,,691,,,
Ti2ZrNbHf,10.1016/j.msea.2024.147375,BCC,,,354,,,
Ti2ZrNbHfV0.4,10.1016/j.msea.2024.147375,BCC,,,629,,,
Ti2ZrNbHfV1,10.1016/j.msea.2024.147375,BCC,,,934,,,
Zr0.5Ti0.35Nb0.15Al10,10.1016/j.msea.2024.147375,BCC,,,1012,,,
VNbTi,10.1016/j.msea.2024.147375,BCC,,,686,,,
Hf0.5Nb0.5Ta0.5Ti1.5Zr,10.1016/j.msea.2024.147375,BCC,,,908,,,
Zr50Ti35Nb15,10.1016/j.msea.2024.147375,BCC,,,657,,,
TiVNbTa (EM),10.1016/j.msea.2024.147375,BCC,,,720,,,
TiVNbTaSi 0.1,10.1016/j.msea.2024.147375,BCC,,,1120,,,
TiVNbTaSi 0.1,10.1016/j.msea.2024.147375,BCC,,,1350,,,
TiVNbTaSi 0.1,10.1016/j.msea.2024.147375,BCC,,,1400,,,
TiVNbTaSi 0.1,10.1016/j.msea.2024.147375,BCC,,,1250,,,
HfNbTa,10.1016/j.msea.2024.147375,BCC,,,847,,,
Ti1.6ZrNbMo0.35,10.1016/j.msea.2024.147375,BCC,,,929,,,