Composition,doi,Phase,Density (g/cm3),Hardness (GPa),YS (MPa) at 23 C,YS (MPa) at 1000 C,YS (MPa) at 1200 C,Test Type
(TiZrNbCu)0.875Ni0.125,10.1016/j.jallcom.2016.11.179,,7.11,,116.7,,,
(TiZrNbCu)0.85Ni0.15,10.1016/j.jallcom.2016.11.179,,7.13,,119,,,
(TiZrNbCu)0.8Ni0.2,10.1016/j.jallcom.2016.11.179,,7.2,,123.8,,,
(TiZrNbCu)0.75Ni0.25,10.1016/j.jallcom.2016.11.179,,7.28,,128.6,,,
Al9CrFeNi,10.1016/j.msea.2016.11.019,,,,770,,,
Al10CrFeNi,10.1016/j.msea.2016.11.019,,,,843.2,,,
Al11CrFeNi,10.1016/j.msea.2016.11.019,,,,1044,,,
Al12CrFeNi,10.1016/j.msea.2016.11.019,,,,906.8,,,
Al13CrFeNi,10.1016/j.msea.2016.11.019,,,,1122.8,,,
CoCrFeMnNi,10.1016/j.cossms.2017.08.003,,,,,,,
Ti20Zr20Hf20Be20Cu20,10.1016/j.msea.2017.01.094,,,,1889,,,
Ti20Zr20Hf20Be20Cu10Ni10,10.1016/j.msea.2017.01.094,,,,2019,,,
Al0.3CoCrFeNi,10.1016/j.matdes.2017.02.072,,,,,,159,
Al0.3CoCrFeNi,10.1016/j.matdes.2017.02.072,,,,,,220,
Al0.3CoCrFeNi,10.1016/j.matdes.2017.02.072,,,,,,215,
Al0.3CoCrFeNi,10.1016/j.matdes.2017.02.072,,,,,,285,
Al0.3CoCrFeNi,10.1016/j.matdes.2017.02.072,,,,,,263,
Al0.3CoCrFeNi,10.1016/j.matdes.2017.02.072,,,,,,490,
Al0.5NbTa0.8Ti1.5V0.2Zr,10.1038/s41598-018-27144-3,,,,2032,,,
Al0.5NbTa0.8Ti1.5V0.2Zr,10.1038/s41598-018-27144-3,,,,,1774,,
Al0.5NbTa0.8Ti1.5V0.2Zr,10.1038/s41598-018-27144-3,,,,1065,,,
Al0.5NbTa0.8Ti1.5V0.2Zr,10.1038/s41598-018-27144-3,,,,,975,,C
Al0.5NbTa0.8Ti1.5V0.2Zr,10.1038/s41598-018-27144-3,,,,,1423,,C
Nb30Mo30Hf20Co20 ,10.1016/j.mtla.2021.101225,,,,1180,,,C
Nb30Mo30Hf20Co20 ,10.1016/j.mtla.2021.101225,,,,,370,,C
Nb30Mo30Hf20Co20 ,10.1016/j.mtla.2021.101225,,,,1635,,,C
Nb30Mo30Hf20Co20 ,10.1016/j.mtla.2021.101225,,,,,485,,C
AlCoCrFeNi21,10.1016/j.jmrt.2024.03.207,BCC,,,540,,,T
AlCoCrFeNi21,10.1016/j.jmrt.2024.03.207,BCC,,,600,,,T
AlCoCrFeNi21,10.1016/j.jmrt.2024.03.207,BCC,,,675,,,T
Ti67Nb16Zr17,10.1016/j.jallcom.2022.168290,BCC,,,510,,,T
Ti59Nb14Zr15Al12,10.1016/j.jallcom.2022.168290,BCC,,,905,,,T
Ti58.3Nb13.9Zr14.8Al13,10.1016/j.jallcom.2022.168290,BCC,,,1160,,,T
Ti57.6Nb13.8Zr14.6Al14,10.1016/j.jallcom.2022.168290,BCC,,,1080,,,T
Ti53.6Nb12.8Zr13.6Al20,10.1016/j.jallcom.2022.168290,BCC,,,590,,,T
Zr45Ti31.5Nb13.5Al10,10.1016/j.jmst.2021.08.034,BCC,,,1012,,,T
Zr45Ti31.5Nb13.5Al10,10.1016/j.jmst.2021.08.034,BCC,,,1143,,,T
Zr40Ti28Nb12Al20,10.1016/j.jmst.2021.08.034,BCC,,,1512,,,T
 TiZrVNb,10.1016/j.msea.2023.145861,BCC,,,550,,,T
 Ti23.3Zr23.3V23.3Nb23.3Al6.67,10.1016/j.msea.2023.145861,BCC,,,700,,,T
 Ti21.875Zr21.875V21.875Nb21.875Al12.5,10.1016/j.msea.2023.145861,BCC,,,940,,,T
 Ti20.625Zr20.625V20.625Nb20.625Al17.5,10.1016/j.msea.2023.145861,BCC,,,1050,,,T
HfMoNbTaTi,10.1016/j.actamat.2022.118132,BCC,,,1400,,,C
HfMoNbTi,10.1016/j.actamat.2022.118132,BCC,,,1380,,,C
HfMoNbTaZr,10.1016/j.actamat.2022.118132,BCC,,,1550,,,C
HfMoTaTiZr,10.1016/j.actamat.2022.118132,BCC,,,1700,,,C
HfMoNbTiZr,10.1016/j.actamat.2022.118132,BCC,,,1420,,,C
AlMo0.5NbTa0.5TiZr0.5,10.1016/j.msea.2024.146513,BCC,,,764,,,T
AlMo0.5NbTa0.5TiZr0.5,10.1016/j.msea.2024.146513,BCC,,,750,,,T
AlMo0.5NbTa0.5TiZr0.5,10.1016/j.msea.2024.146513,BCC,,,763,,,T
AlMo0.5NbTa0.5TiZr0.5,10.1016/j.msea.2024.146513,BCC,,,749,,,T
AlMo0.5NbTa0.5TiZr0.5,10.1016/j.msea.2024.146513,BCC,,,751,,,T
AlMo0.5NbTa0.5TiZr0.5,10.1016/j.msea.2024.146513,BCC,,,762,,,T
FeNiCrCo0.3Al0.7,10.1016/j.matdes.2013.04.061,BCC,,,2033,,,C
FeNiCrCoAl,10.1016/j.matdes.2013.04.061,BCC,,,1251,,,C
Al0.6CoNiFeTi0.4,10.1016/j.msea.2012.12.072,,,,2732,,,C
AlCoNiFeCrTi0.5,10.1016/j.msea.2012.12.072,,,,2260,,,C
AlCoNiFeCrNb0.5,10.1016/j.msea.2012.12.072,,,,2473,,,C
CuCoNiFeCrTi0.5,10.1016/j.msea.2012.12.072,,,,1042,,,C
AlCoNiFeCr,10.1016/j.msea.2012.12.072,,,,1251,,,C
AlCuCoFeNiCr,10.1016/j.msea.2012.12.072,,,,1303,,,C
AlCuCoFeNiCrTi,10.1016/j.msea.2012.12.072,,,,1234,,,C
AlCuCoFeNiCrMn,10.1016/j.msea.2012.12.072,,,,1005,,,C
AlCuCoFeNiCrV,10.1016/j.msea.2012.12.072,,,,1469,,,C
TiCrFeCoNiAl0.75Cu0.25,10.1016/j.msea.2012.12.072,,,,1900,,,C
AlCuCoFeNiCrMo0.6,10.1016/j.msea.2012.12.072,,,,1880,,,C
AlCoFeNiCrSi,10.1016/j.msea.2012.12.072,,,,2411,,,C
AlCoFeNiCrC0.4,10.1016/j.msea.2012.12.072,,,,1056,,,C
VNbMoTaW,10.1016/j.msea.2012.12.072,,,,1246,,,C
AlCoNiFeCrTi0.5Cu0.5,10.1016/j.msea.2012.12.072,,,,1984,,,C
CoFeNiCrAl0.6Ti0.4,10.1016/j.jallcom.2012.11.146,,,,2080,,,C
CoFeNiCrAlTi,10.1016/j.jallcom.2012.11.146,,,,1860,,,C
Co0.5FeNiCrTi0.5,10.1016/j.matdes.2012.08.048,,,,2650,,,C
CoFeNiCrAl,10.1016/j.matdes.2012.08.048,,,,1250,,,C
CoNiFeCrAlTi,10.1016/j.matdes.2012.08.048,,,,1860,,,C
CuCoFeNiCrTi0.5,10.1016/j.matdes.2012.08.048,,,,700,,,C
CuCoFeNiCrAl,10.1016/j.matdes.2012.08.048,,,,1030,,,C
CuCoFeNiCrAlTi,10.1016/j.matdes.2012.08.048,,,,1230,,,C
CuCoFeNiCrAlMn,10.1016/j.matdes.2012.08.048,,,,1000,,,C
CuCoFeNiCrAlV,10.1016/j.matdes.2012.08.048,,,,1470,,,C
Cu0.5CoCrFeNiAlTi0.5,10.1016/j.matdes.2012.08.048,,,,1980,,,C
CuCoFeNiCrAlMo0.4,10.1016/j.matdes.2012.08.048,,,,1690,,,C
CoFeNiCrAlSi0.6,10.1016/j.matdes.2012.08.048,,,,1830,,,C
CoFeNiCrAlC0.5,10.1016/j.matdes.2012.08.048,,,,1060,,,C
AlCoCrFeNi,10.1016/j.matdes.2013.12.048,BCC,,,1378.9,,,
AlCoCrFeNiV0.2,10.1016/j.matdes.2013.12.048,BCC,,,1492.4,,,
AlCoCrFeNiV0.5,10.1016/j.matdes.2013.12.048,BCC,,,1597.7,,,
AlCoCrFeNiV0.8,10.1016/j.matdes.2013.12.048,BCC,,,1695.8,,,
AlCoCrFeNiV1.0,10.1016/j.matdes.2013.12.048,BCC,,,1726.5,,,
FeCrNiCoAl0.7Cu0.5,10.1016/j.msea.2014.01.044,FCC,,,630,,,C
FeCrNiCoAl0.75Cu0.25,10.1016/j.msea.2014.01.044,FCC,,,859,,,C
FeCrNiCoAl0.7Cu0.5þ10 vol%TiC,10.1016/j.msea.2014.01.044,FCC,,,1290,,,C
FeCrNiCoAl0.75Cu0.25þ10 vol%TiC,10.1016/j.msea.2014.01.044,FCC,,,1637,,,C
CoCrCuFeNiTi0.5,10.1016/j.msea.2014.01.044,FCC,,,700,,,C
CoCrCuFeNiTi0.8,10.1016/j.msea.2014.01.044,FCC,,,1042,,,C
CoCrCuFeNiTi,10.1016/j.msea.2014.01.044,FCC,,,1272,,,C
AlCrFeCoNi,10.1016/j.msea.2014.01.044,FCC,,,1251,,,C
AlCrMnFeCoNiCuTiV,10.1016/j.msea.2014.01.044,FCC,,,1862,,,C
AlCrFeCoNiCu,10.1016/j.msea.2014.01.044,FCC,,,1303,,,C
AlCrFeCoNiCuMn,10.1016/j.msea.2014.01.044,FCC,,,1005,,,C
AlCrFeCoNiCuTi,10.1016/j.msea.2014.01.044,FCC,,,1234,,,C
AlCrFeCoNiCuV,10.1016/j.msea.2014.01.044,FCC,,,1469,,,C
Ti20Zr20Hf20Nb20V20,10.1016/j.ijrmhm.2014.07.009,BCC + u,,128,1170,,,
Ti20Zr20Hf20Nb20V20,10.1016/j.ijrmhm.2014.07.009,BCC + V2M,,128,,1157,,
Ti20Zr20Hf20Nb20Cr20,10.1016/j.ijrmhm.2014.07.009,BCC + L1 + L2,,112,1375,,,
Ti20Zr20Hf20Nb20Cr20,10.1016/j.ijrmhm.2014.07.009,BCC + L1 + L2,,112,,1328,,
Ti20Zr20Hf20Nb20Ta20 [3],10.1016/j.ijrmhm.2014.07.009,BCC,,,929,,,
W20Nb20Mo20Ta20 [4],10.1016/j.ijrmhm.2014.07.009,BCC,,,1058,,,
W20Nb20Mo20Ta20V20 [3],10.1016/j.ijrmhm.2014.07.009,BCC,,,1246,,,
Al0.6CoFeNi,10.1016/j.msea.2014.09.077,FCC,,,2200,,,C
CoCrFeNiAl0.3,10.1016/j.intermet.2014.05.018,FCC,,,275,,,T
CoCrFeNiAl0.3,10.1016/j.intermet.2014.05.018,FCC,,,185,,,T
CoCrFeNi,10.1016/j.jallcom.2013.12.210,FCC,,,140,,,T
CoCrFeNi,10.1016/j.jallcom.2013.12.210,FCC,,,130,,,T
CoCrFeNiMn,10.1016/j.jallcom.2013.12.210,FCC,,,215,,,T
CoCrFeNiMn,10.1016/j.jallcom.2013.12.210,FCC,,,162,,,T
CoCrFeNi,10.1016/j.jallcom.2013.12.210,FCC,,,190,,,C
CoCrFeNiV,10.1016/j.jallcom.2013.12.210,BCC + FCC,,,1435,,,C
CoCrFeNiMnV,10.1016/j.jallcom.2013.12.210,BCC + FCC,,,1660,,,C
Al0.25CoCrFeNi,10.1016/j.msea.2017.09.089,FCC,,,127,,,T
Al0.25CoCrFeNi,10.1016/j.msea.2017.09.089,FCC,,,691,,,T
Al0.25CoCrFeNi,10.1016/j.msea.2017.09.089,FCC,,,800,,,T
Al0.25CoCrFeNi,10.1016/j.msea.2017.09.089,FCC,,,991,,,T
Al0.25CoCrFeNi,10.1016/j.msea.2017.09.089,FCC,,,1280,,,T
CoCrFeNi,10.1016/j.jmst.2016.09.016,FCC,,,145,,,C
CoCrFeNb0.25Ni,10.1016/j.jmst.2016.09.016,FCC,,,423,,,C
CoCrFeNb0.45Ni,10.1016/j.jmst.2016.09.016,FCC,,,1474.9,,,C
CoCrFeNb0.5Ni,10.1016/j.jmst.2016.09.016,FCC,,,1414,,,C
CoCrFeMnNi,10.1016/j.msea.2017.09.026,FCC,,,484,,,T
CoCrFeMnNi,10.1016/j.msea.2017.09.026,FCC,,,650,,,T
Al0.3CoCrFeNi,10.1016/j.intermet.2016.12.016,FCC,,,167,,,T
FeCoNi,10.1016/j.intermet.2017.04.007,FCC,,,198.6,,,T
FeCoNiMn0.25Al0.25,10.1016/j.intermet.2017.04.007,FCC,,,331.4,,,T
FeCoNiMn0.5Al0.5,10.1016/j.intermet.2017.04.007,FCC,,,315.6,,,T
CoCrFeNi,10.1016/j.msea.2017.09.101,FCC,,,220,,,C
Al0.3CoCrFeNi,10.1016/j.msea.2017.09.101,FCC,,,300,,,C
Al0.5CoCrFeNi,10.1016/j.msea.2017.09.101,BCC + FCC,,,950,,,C
Al0.75CoCrFeNi,10.1016/j.msea.2017.09.101,BCC + FCC,,,1400,,,C
AlCoCrFeNi,10.1016/j.msea.2017.09.101,BCC,,,1300,,,C
AlCoCrFeNi2.0,10.1016/j.actamat.2016.11.016,FCC + B2,,,545.6,,,T
AlCoCrFeNi2.1,10.1016/j.actamat.2016.11.016,FCC + B2,,,546.4,,,T
AlCoCrFeNi2.2,10.1016/j.actamat.2016.11.016,FCC + B2,,,544.5,,,T
Cr15Fe20Co35Ni20Mo10,10.1016/j.scriptamat.2017.05.019,FCC,,,,879,,T
Cr15Fe20Co35Ni20Mo10,10.1016/j.scriptamat.2017.05.019,FCC,,,,799,,T
Ni1.5Co1.5CrFeTi0.5,10.1016/j.matdes.2017.01.036,FCC,7.79,209,1308,,,T
AlCoCrCuFeNi,10.1016/j.msea.2017.02.072,BCC + FCC,,,1370,,,C
AlCoCrCuFeNi,10.1016/j.msea.2017.02.072,BCC + FCC,,,1490,,,C
Al0.1CoCrCuFeNi,10.1016/j.wear.2017.01.020,FCC,7.45,186,160,,,T
CoCrFeNiMn,10.1016/j.msea.2017.08.083,FCC,,,240,,,T
CoCrFeNiMn,10.1016/j.msea.2017.08.083,FCC,,,670,,,T
CoCrFeNiMn,10.1016/j.msea.2017.08.083,FCC,,,810,,,T
CoCrFeNiMn,10.1016/j.msea.2017.08.083,FCC,,,980,,,T
CoCrFeNiMn,10.1016/j.msea.2017.08.083,FCC,,,850,,,T
CoCrFeNiMn,10.1016/j.msea.2017.08.083,FCC,,,820,,,T
CoCrFeNiMn,10.1016/j.msea.2017.08.083,FCC,,,530,,,T
CoCrFeNiMn,10.1016/j.msea.2017.08.083,FCC,,,1015,,,T
CoCrFeNiMn,10.1016/j.msea.2017.08.083,FCC,,,890,,,T
CoCrFeNiMn,10.1016/j.msea.2017.08.083,FCC,,,560,,,T
CoCrFeNiMn,10.1016/j.msea.2017.08.083,FCC,,,925,,,
CoCrFeNiMn,10.1016/j.msea.2017.08.083,FCC,,,985,,,
Ti,10.1016/j.msec.2016.12.057,BCC,,116,195,,,
Zr,10.1016/j.msec.2016.12.057,BCC,,88,280,,,
Nb,10.1016/j.msec.2016.12.057,BCC,,105,240,,,
Ta,10.1016/j.msec.2016.12.057,BCC,,186,170,,,
Mo,10.1016/j.msec.2016.12.057,BCC,,329,420,,,
TiZrNbTaMo,10.1016/j.msec.2016.12.057,BCC,,,261,,,
TiZrNbTaMo,10.1016/j.msec.2016.12.057,BCC,,,1390,,,
Ni1.5CoFeCu0.9Al0.1V0.5,10.1016/j.msea.2017.09.119,FCC,,,1219,,,C
Ni1.5CoFeCu0.8Al0.2V0.5,10.1016/j.msea.2017.09.119,FCC,,,1504,,,C
Ni1.5CoFeCu0.7Al0.3V0.5,10.1016/j.msea.2017.09.119,FCC,,,1721,,,C
V35Ti35Fe15Cr10Zr5,10.1016/j.matdes.2017.02.029,0.67,,,917.8,,,
V35Ti35Fe15Cr10Zr5,10.1016/j.matdes.2017.02.029,12.2,,,,224.8,,
AlCoCuFeNi,10.1016/j.matdes.2016.12.036,,,202,1060,,,C
AlCoCuFeNiCr,10.1016/j.matdes.2016.12.036,,,219,1285,,,C
AlCoCuFeNiTi,10.1016/j.matdes.2016.12.036,,,231,1612,,,C
AlCoCuFeNiCrTi,10.1016/j.matdes.2016.12.036,,,239,1523,,,C
AlNbTiV,10.1016/j.msea.2017.08.019,BCC,5.59,,1000,,,C
AlNbTiV,10.1016/j.msea.2017.08.019,BCC,5.59,,,560,,C
AlNbTiVZr0.1,10.1016/j.msea.2017.08.019,BCC,5.53,,1290,,,C
AlNbTiVZr0.1,10.1016/j.msea.2017.08.019,BCC,5.53,,,865,,C
AlNbTiVZr0.25,10.1016/j.msea.2017.08.019,BCC,5.57,,1360,,,C
AlNbTiVZr0.25,10.1016/j.msea.2017.08.019,BCC,5.57,,,855,,C
AlNbTiVZr0.5,10.1016/j.msea.2017.08.019,BCC,5.64,,1485,,,C
AlNbTiVZr0.5,10.1016/j.msea.2017.08.019,BCC,5.64,,,675,,C
AlNbTiVZr,10.1016/j.msea.2017.08.019,BCC,5.79,,1500,,,C
AlNbTiVZr,10.1016/j.msea.2017.08.019,BCC,5.79,,,550,,C
AlNbTiVZr1.5,10.1016/j.msea.2017.08.019,BCC,5.87,,1535,,,C
AlNbTiVZr1.5,10.1016/j.msea.2017.08.019,BCC,5.87,,,180,,C
HfZrTiTa0.53,10.1016/j.matdes.2017.08.022,BCC,,,774,,,C
HfZrTiTa0.53,10.1016/j.matdes.2017.08.022,BCC,,,1360,,,C
HfZrTiTa0.53,10.1016/j.matdes.2017.08.022,BCC,,,1469,,,C
HfZrTiTa0.53,10.1016/j.matdes.2017.08.022,BCC,,,1390,,,C
HfZrTiTa0.53,10.1016/j.matdes.2017.08.022,BCC,,,1388,,,C
CoCrCuFeNi,10.1016/j.msea.2017.09.102,FCC,,,320,,,C
Gd0.05CoCrCuFeNi,10.1016/j.msea.2017.09.102,FCC,,,300,,,C
Gd0.1CoCrCuFeNi,10.1016/j.msea.2017.09.102,FCC,,,526,,,C
Gd0.2CoCrCuFeNi,10.1016/j.msea.2017.09.102,FCC,,,739,,,C
Gd0.3CoCrCuFeNi,10.1016/j.msea.2017.09.102,FCC,,,1132,,,C
Ni,10.1016/j.intermet.2017.03.011,FCC,,,59,,,
NiCo,10.1016/j.intermet.2017.03.011,FCC,,,110,,,
NiFe,10.1016/j.intermet.2017.03.011,FCC,,,187,,,
NiCoMn,10.1016/j.intermet.2017.03.011,FCC,,,230,,,
NiFeMn,10.1016/j.intermet.2017.03.011,FCC,,,229,,,
NiCoFe,10.1016/j.intermet.2017.03.011,FCC,,,213,,,
NiCoFeMn,10.1016/j.intermet.2017.03.011,FCC,,,176,,,
NiCoFeCr,10.1016/j.intermet.2017.03.011,FCC,,,140,,,
NiCoFeCr,10.1016/j.intermet.2017.03.011,FCC,,,130,,,
NiCoFeCr,10.1016/j.intermet.2017.03.011,FCC,,,147,,,
NiCoFeCr,10.1016/j.intermet.2017.03.011,FCC,,,165,,,
NiCoCrFeMn,10.1016/j.intermet.2017.03.011,FCC,,,215,,,
NiCoCrFeMn,10.1016/j.intermet.2017.03.011,FCC,,,162,,,
NiCoCrFeMn,10.1016/j.intermet.2017.03.011,FCC,,,209,,,
Ni19.2Co19.2Cr19.2Fe19.2Mn19.2Al4,10.1016/j.intermet.2017.03.011,,,,220,,,
Ni18.6Co18.6Cr18.6Fe18.6Mn18.6Al7 ,10.1016/j.intermet.2017.03.011,,,,242,,,
CoCrFeNi,10.1007/s1254 0-019-00565 -z,,,,145,,,
CoCrFeNiTa0.1,10.1007/s1254 0-019-00565 -z,,,,267,,,
CoCrFeNiTa0.2,10.1007/s1254 0-019-00565 -z,,,,405,,,
CoCrFeNiTa0.3,10.1007/s1254 0-019-00565 -z,,,,946,,,
CoCrFeNiTa0.4,10.1007/s1254 0-019-00565 -z,,,,1316,,,
CoCrFeNiTa0.5,10.1007/s1254 0-019-00565 -z,,,,1346,,,
AlMo0.5NbTa0.5TiZr,10.1007/s1254 0-019-00565 -z,,,,2368,,,
AlMo0.5NbTa0.5TiZr,10.1007/s1254 0-019-00565 -z,,,,,772,,
AlMo0.5NbTa0.5TiZr,10.1007/s1254 0-019-00565 -z,,,,,,275,
Al0.4Hf0.6NbTaTiZr,10.1007/s1254 0-019-00565 -z,,,,2269,,,
Al0.4Hf0.6NbTaTiZr,10.1007/s1254 0-019-00565 -z,,,,,455,,
Al0.4Hf0.6NbTaTiZr,10.1007/s1254 0-019-00565 -z,,,,,,135,
TaNbHfZrTi,10.1007/s1254 0-019-00565 -z,,,,929,,,
Al0.3CrFe1.5MnNi0.5,10.1007/s1254 0-019-00565 -z,,,,298.8,,,
CoFeNiMnAl,10.1007/s1254 0-019-00565 -z,,,,577.4,,,
CoFeNiMnTi0.1Al0.9,10.1007/s1254 0-019-00565 -z,,,,926.7,,,
CoFeNiMnTi0.3Al0.7,10.1007/s1254 0-019-00565 -z,,,,1106.6,,,
CoFeNiMnTi0.5Al0.5,10.1007/s1254 0-019-00565 -z,,,,1052.8,,,
CoFeNiMnTi0.8Al0.2,10.1007/s1254 0-019-00565 -z,,,,1125.8,,,
CoFeNiMnTi,10.1007/s1254 0-019-00565 -z,,,,1070.5,,,
HfNbTiZr,10.1007/s1254 0-019-00565 -z,,,,706,,,
Al0.5HfNbTiZr,10.1007/s1254 0-019-00565 -z,,,,1120,,,
Al0.75HfNbTiZr,10.1007/s1254 0-019-00565 -z,,,,1331,,,
AlHfNbTiZr,10.1007/s1254 0-019-00565 -z,,,,1582,,,
Al1.25HfNbTiZr,10.1007/s1254 0-019-00565 -z,,,,1620,,,
Al1.5HfNbTiZr,10.1007/s1254 0-019-00565 -z,,,,1746,,,
MoNbHfZrTi,10.1007/s1254 0-019-00565 -z,,,,1719,,,
MoNbHfZrTi,10.1007/s1254 0-019-00565 -z,,,,1575,,,
MoNbHfZrTi,10.1007/s1254 0-019-00565 -z,,,,,635,,
MoNbHfZrTi,10.1007/s1254 0-019-00565 -z,,,,,,187,
Mo0.5NbHf0.5ZrTi,10.1007/s1254 0-019-00565 -z,,,,1192,,,
Mo0.5NbHf0.5ZrTiC0.1,10.1007/s1254 0-019-00565 -z,,,,1183,,,
Mo0.5NbHf0.5ZrTiC0.3,10.1007/s1254 0-019-00565 -z,,,,1201,,,
HfMoNbTaTiZr,10.1007/s1254 0-019-00565 -z,,,,1512,,,
HfMoNbTaTiZr,10.1007/s1254 0-019-00565 -z,,,,,814,,
HfMoNbTaTiZr,10.1007/s1254 0-019-00565 -z,,,,,,556,
HfMoTaTiZr,10.1007/s1254 0-019-00565 -z,,,,1600,,,
HfMoTaTiZr,10.1007/s1254 0-019-00565 -z,,,,,855,,
HfMoTaTiZr,10.1007/s1254 0-019-00565 -z,,,,,,404,
AlNbTiV,10.1007/s1254 0-019-00565 -z,,,,1000,,,
AlCr0.5NbTiV,10.1007/s1254 0-019-00565 -z,,,,1300,,,
AlCrNbTiV,10.1007/s1254 0-019-00565 -z,,,,1550,,,
AlNbTiVZr0.5,10.1007/s1254 0-019-00565 -z,,,,1485,,,
AlNbTiVZr,10.1007/s1254 0-019-00565 -z,,,,1500,,,
HfMo0.5NbTiV0.5,10.1007/s1254 0-019-00565 -z,,,,1260,,,
HfMo0.5NbTiV0.5Si0.3,10.1007/s1254 0-019-00565 -z,,,,1617,,,
HfMo0.5NbTiV0.5Si0.5,10.1007/s1254 0-019-00565 -z,,,,1787,,,
HfMo0.5NbTiV0.5Si0.7,10.1007/s1254 0-019-00565 -z,,,,2134,,,
Al0.3CoCrFeNi,10.1007/s1254 0-019-00565 -z,,,,119,,,
Al0.3CoCrFeNiMn0.1,10.1007/s1254 0-019-00565 -z,,,,149,,,
Al0.3CoCrFeNiMn0.3,10.1007/s1254 0-019-00565 -z,,,,158,,,
FeCoCrNiMnTi0.1C0.1,10.1007/s1254 0-019-00565 -z,,,,,1194,,
FeCoCrNiMn,10.1007/s1254 0-019-00565 -z,,,,1314,,,
FeCoCrNiMnAl0.1,10.1007/s1254 0-019-00565 -z,,,,1631,,,
FeCoCrNiMnAl0.3,10.1007/s1254 0-019-00565 -z,,,,1836,,,
FeCoCrNiMnAl0.5,10.1007/s1254 0-019-00565 -z,,,,1932,,,
FeCoCrNiMnAl0.7,10.1007/s1254 0-019-00565 -z,,,,2230,,,
AlFeCuCr,10.1007/s1254 0-019-00565 -z,,,,1950,,,
AlFeCuCrMg0.5,10.1007/s1254 0-019-00565 -z,,,,2559,,,
AlFeCuCrMg,10.1007/s1254 0-019-00565 -z,,,,2220,,,
AlFeCuCrMg1.5,10.1007/s1254 0-019-00565 -z,,,,1559,,,
Al0.3CoCrFeNi,10.1007/s1254 0-019-00565 -z,,,,200,,,
Al0.6CoCrFeNi,10.1007/s1254 0-019-00565 -z,,,,400,,,
Al0.85CoCrFeNi,10.1007/s1254 0-019-00565 -z,,,,1400,,,
FeNiCoCrAl13,10.1016/j.msea.2018.02.044,,,138,330,,,
FeNiCoCrAl13,10.1016/j.msea.2018.02.044,,,140,,370,,
FeNiCoCrAl13,10.1016/j.msea.2018.02.044,,,142,,,410,
FeNiCoCrAl13,10.1016/j.msea.2018.02.044,,,136,,,385,
FeMn,10.1016/j.matdes.2018.07.046,,,204.5,191,,,
FeMnNi,10.1016/j.matdes.2018.07.046,,,203,357,,,
FeMnNiCo,10.1016/j.matdes.2018.07.046,,,204.5,215,,,
FeMnNiCoCu,10.1016/j.matdes.2018.07.046,,,189.6,499,,,
AlCoCrFeNi2.1,10.1016/j.matchemphys.2017.06.023,Multi phase,,,620,,,T
Al3.31Cr18Fe18Ni54.54Ti5.78,10.1016/j.matchemphys.2017.09.057,FCC,,,755,,,T
Al3.31Co27Cr18Fe18Ni27.27Ti5.78,10.1016/j.matchemphys.2017.09.057,FCC,,,952,,,T
Al3.31Co27Cr18Fe18Ni27.27Ti5.78,10.1016/j.matchemphys.2017.09.057,FCC,,,,126,,T
FeCoCrNiMn,10.1016/j.msea.2018.02.040,FCC,,,774,,,C
FeCoCrNiMnTi0.3C0.3,10.1016/j.msea.2018.02.040,FCC,,,1445,,,C
CoCrFeNiMn,10.1016/j.matchemphys.2017.08.011,FCC,,,250,,,T
CoCrFeNiMnC0.05,10.1016/j.matchemphys.2017.08.011,FCC,,,290,,,T
CoCrFeNiMnC0.1,10.1016/j.matchemphys.2017.08.011,FCC,,,350,,,T
CoCrFeNiMnC0.15,10.1016/j.matchemphys.2017.08.011,FCC,,,425,,,T
CoCrFeNiMnC0.2,10.1016/j.matchemphys.2017.08.011,FCC,,,500,,,T
ZrTiHfNb0.5Ta0.5,10.1016/j.matlet.2018.05.123,,,,738,,,C
ZrTiHfNb0.5Ta0.5,10.1016/j.matlet.2018.05.123,,,,,170,,C
ZrTiHfNb0.5Ta0.5O0.05,10.1016/j.matlet.2018.05.123,,,,955,,,C
ZrTiHfNb0.5Ta0.5O0.05,10.1016/j.matlet.2018.05.123,,,,,327,,C
ZrTiHfNb0.5Ta0.5O0.1,10.1016/j.matlet.2018.05.123,,,,1097,,,C
ZrTiHfNb0.5Ta0.5O0.1,10.1016/j.matlet.2018.05.123,,,,,380,,C
ZrTiHfNb0.5Ta0.5O0.2,10.1016/j.matlet.2018.05.123,,,,1393,,,C
ZrTiHfNb0.5Ta0.5O0.2,10.1016/j.matlet.2018.05.123,,,,,537,,C
Fe40Mn40Co10Cr10,10.1016/j.msea.2018.01.045,FCC,,,213,,,T
(Fe40Mn40Co10Cr10)97.8C2.2,10.1016/j.msea.2018.01.045,FCC,,,310,,,T
(Fe40Mn40Co10Cr10)96.7C3.3,10.1016/j.msea.2018.01.045,FCC,,,422,,,T
(Fe40Mn40Co10Cr10)95.6C4.4,10.1016/j.msea.2018.01.045,FCC,,,467,,,T
(Fe40Mn40Co10Cr10)93.4C6.6,10.1016/j.msea.2018.01.045,FCC,,,620,,,T
(Fe40Mn40Co10Cr10)91.1C8.9,10.1016/j.msea.2018.01.045,FCC,,,750,,,T
AlCrCuNiFeCo,10.1016/j.matchemphys.2017.07.079,,,,18,,,T
AlCrCuNiFeCo,10.1016/j.matchemphys.2017.07.079,,,,,800,,
AlCoCrCuFeNi,10.1016/j.matchemphys.2017.07.079,,,,,150,,T
FeCoNiCrMn,10.1016/j.matchemphys.2017.07.079,,,,,260,,
CoCrFeMnNi,10.1016/j.matchemphys.2017.07.079,,,,200,,,
FeCoNiCrTiAl,10.1016/j.matchemphys.2017.07.079,,,,,260,,
CoCrFeMnNi,10.1016/j.matchemphys.2017.07.079,,,,,300,,T
CoCrFeNiMn,10.1016/j.matchemphys.2017.07.079,,,,,350,,T
CoCrFeNiMnTi0.1,10.1016/j.matchemphys.2017.07.079,,,,10,,,T
CoCrFeNi,10.1016/j.matchemphys.2017.07.079,,,,,300,,
Al0.1CoCrFeNi,10.1016/j.matchemphys.2018.05.050,FCC,,,160,,,T
Al0.1CoCrFeNi,10.1016/j.matchemphys.2018.05.050,FCC,,,544,,,T
CoFeNiMnAl,10.1016/j.msea.2018.06.022,FCC+BCC,,,577.4,,,C
CoFeNiMnTi0.1Al0.9,10.1016/j.msea.2018.06.022,FCC+BCC,,,926.7,,,C
CoFeNiMnTi0.3Al0.7,10.1016/j.msea.2018.06.022,FCC+BCC,,,1106.6,,,C
CoFeNiMnTi0.5Al0.5,10.1016/j.msea.2018.06.022,FCC+BCC,,,1052.8,,,C
CoFeNiMnTi0.8Al0.2,10.1016/j.msea.2018.06.022,FCC+BCC,,,1125.8,,,C
CoFeNiMnTi,10.1016/j.msea.2018.06.022,FCC+BCC,,,1070.5,,,C
CoFeMnNi,10.1016/j.msea.2018.09.050,FCC,,,124,,,C
CoFeMnNiTi0.25,10.1016/j.msea.2018.09.050,FCC,,,317,,,C
CoFeMnNiTi0.5,10.1016/j.msea.2018.09.050,FCC,,,803,,,C
CoFeMnNiTi0.75,10.1016/j.msea.2018.09.050,FCC+BCC,,,1578,,,C
CoCrFeNiTi0.3,10.1016/j.msea.2018.09.050,,,,648,,,C
CoCrFeNiTi0.5,10.1016/j.msea.2018.09.050,,,,898,,,C
CoCrFeNiMo0.3,10.1016/j.msea.2018.09.050,,,,305,,,C
CoCrFeNiMo0.5,10.1016/j.msea.2018.09.050,,,,510,,,C
CoCrFeNiMo0.85,10.1016/j.msea.2018.09.050,,,,929,,,C
CoCrCuFeNiTi0.5,10.1016/j.msea.2018.09.050,,,,700,,,C
CoCrCuFeNiTi0.8,10.1016/j.msea.2018.09.050,,,,1042,,,C
CoCrCuFeNiTi,10.1016/j.msea.2018.09.050,,,,1272,,,C
CoCrCuFeNiGd0.1,10.1016/j.msea.2018.09.050,,,,526,,,C
CoCrCuFeNiGd0.2,10.1016/j.msea.2018.09.050,,,,739,,,C
CoCrCuFeNiGd0.3,10.1016/j.msea.2018.09.050,,,,1132,,,C
Fe30Mn10Cr10Co,10.1016/j.prostr.2018.12.159,FCC+HCP,,,172,,,T
AlFeCoNi,10.1016/j.msea.2018.05.013,,,,810,,,C