Composition,doi,Phase,Density (g/cm3),Hardness (GPa),YS (MPa) at 23 C,YS (MPa) at 1000 C,YS (MPa) at 1200 C,Test Type
Hf69Ta26Mo5,10.1016/j.ijrmhm.2021.105737,,,,1647,451,101,
Hf61Ta23Mo16,10.1016/j.ijrmhm.2021.105737,,,,1468,758,238,
Hf58Ta21Mo21,10.1016/j.ijrmhm.2021.105737,,,,1496,943,421,
Hf51Ta19Mo30,10.1016/j.ijrmhm.2021.105737,,,,1672,926,478,
Nb12Mo18Ti,10.1016/j.ijrmhm.2020.105221,,7.99,,719,250,161,
Nb14Mo18Ti,10.1016/j.ijrmhm.2020.105221,,8.03,,780,270,183,
Nb12Mo18Ti2Fe,10.1016/j.ijrmhm.2020.105221,,7.99,,1090,456,188,
Nb14Mo18Ti2Fe,10.1016/j.ijrmhm.2020.105221,,8.03,,974,445,213,
Nb5.4Hf2.0Ti0.7Zr0.3Ta0.3W,10.1016/j.ijrmhm.2020.105221,,8.86,,296,145,115,
Nb20Hf6W,10.1016/j.ijrmhm.2020.105221,,10.3,,663,397,388,
NbTiZr,10.1016/j.jallcom.2018.12.325,,6.63,,975,146,61,
Ta10Nb30Ti30Zr30,10.1016/j.jallcom.2018.12.325,,7.81,,882,274,102,
Cr10Nb30Ti30Zr30,10.1016/j.jallcom.2018.12.325,,6.56,,1576,139,37,
Re10Nb30Ti30Zr30,10.1016/j.jallcom.2018.12.325,,7.85,,1244,323,89,
NbTiZr,10.1016/j.actamat.2018.03.065,,6.63,80.4,975,145,,
NbTiZrV,10.1016/j.actamat.2018.03.065,,6.52,72.5,1110,75,,
NbTiZrVMo,10.1016/j.actamat.2018.03.065,,7.27,110.3,1510,467,,
NbTiZrVTa,10.1016/j.actamat.2018.03.065,,8.43,105.3,1395,190,,
NbTiZrVCr,10.1016/j.actamat.2018.03.065,,6.57,100,1295,259,,
NbTiZrVAl0.24,10.1016/j.actamat.2018.03.065,,6.34,88.9,1240,82,,
AlMo0.5NbTa0.5TiZr,10.3390/e18030102,,,,2000,745,250,
AlCoCrFeNi,10.1016/j.msea.2015.08.078,,7,,,395,,
AlCoCrFeNi,10.1016/j.msea.2015.08.078,,7,,,295,,
AlCoCrCuFeNi,10.1016/j.msea.2015.08.078,,7.1,,,350,,
AlCoCrCuFeNi,10.1016/j.msea.2015.08.078,,7.1,,,63,,
Al0.5CoCrCuFeNi,10.1016/j.msea.2015.08.078,,7.6,,,180,,
Al0.5CoCrCuFeNi,10.1016/j.msea.2015.08.078,,7.6,,,160,,
AlMo0.5NbTa0.5TiZr,10.1016/j.actamat.2014.01.029,,7.4,178.6,2000,745,250,
Al0.4Hf0.6NbTaTiZr,10.1016/j.actamat.2014.01.029,,9.05,78.1,1841,298,89,
Hf0.25Nb0.125Ti1V0.5Zr0.5,10.1038/s41524-023-00993-x,,,,1115,,,
Hf0.25Nb0.25Ti1V0.5Zr0.5,10.1038/s41524-023-00993-x,,,,1065,,,
Hf0.25Nb0.375Ti1V0.5Zr0.5,10.1038/s41524-023-00993-x,,,,1025,,,
Hf0.25Nb0.5Ti1V0.5Zr0.5,10.1038/s41524-023-00993-x,,,,980,,,
Hf0.25Ti1V0.5Zr0.5,10.1038/s41524-023-00993-x,,,,1160,,,
Hf0.26Nb1Ta1Ti0.578Zr0.416,10.1038/s41524-023-00993-x,,,,845,,,
Hf0.333Nb0.333Ta0.333Ti1Zr0.667,10.1038/s41524-023-00993-x,,,,903,,,
Hf0.5Mo0.5Nb1Ti1Zr1,10.1038/s41524-023-00993-x,,,,1176,,,
Hf1Mo0.25Nb1Ta1Ti1Zr1,10.1038/s41524-023-00993-x,,,,1112,,,
Hf1Mo0.5Nb1Ta1Ti1Zr1,10.1038/s41524-023-00993-x,,,,1317,,,
Hf1Mo0.5Nb1Ti1V0.5,10.1038/s41524-023-00993-x,,,,1260,,,
Hf1Mo0.75Nb1Ta1Ti1Zr1,10.1038/s41524-023-00993-x,,,,1373,,,
Hf1Mo1Nb1Ta1Ti1,10.1038/s41524-023-00993-x,,,,1369,,,
Hf1Mo1Nb1Ta1Ti1Zr1,10.1038/s41524-023-00993-x,,,,1512,,,
Hf1Mo1Nb1Ta1Zr1,10.1038/s41524-023-00993-x,,,,1524,,,
Hf1Mo1Nb1Ti1Zr1,10.1038/s41524-023-00993-x,,,,1719,,,
Hf1Mo1Nb1Ti1Zr1,10.1038/s41524-023-00993-x,,,,1351,,,
Hf1Mo1Nb1Ti1Zr1,10.1038/s41524-023-00993-x,,,,1575,,,
Hf1Mo1Ta1Ti1Zr1,10.1038/s41524-023-00993-x,,,,1600,,,
Hf1Nb1Ta1Ti1,10.1038/s41524-023-00993-x,,,,860,,,
Hf1Nb1Ta1Ti1,10.1038/s41524-023-00993-x,,,,834,,,
Hf1Nb1Ta1Ti1Zr1,10.1038/s41524-023-00993-x,,,,1073,,,
Hf1Nb1Ta1Ti1Zr1,10.1038/s41524-023-00993-x,,,,828,,,
Hf1Nb1Ta1Ti1Zr1,10.1038/s41524-023-00993-x,,,,827,,,
Hf1Nb1Ta1Ti1Zr1,10.1038/s41524-023-00993-x,,,,820,,,
Hf1Nb1Ta1Ti1Zr1,10.1038/s41524-023-00993-x,,,,803,,,
Hf1Nb1Ta1Ti1Zr1,10.1038/s41524-023-00993-x,,,,890,,,
Hf1Nb1Ta1Ti1Zr1,10.1038/s41524-023-00993-x,,,,1155,,,
Hf1Nb1Ta1Ti1Zr1,10.1038/s41524-023-00993-x,,,,905,,,
Hf1Nb1Ta1Ti1Zr1,10.1038/s41524-023-00993-x,,,,1015,,,
Hf1Nb1Ta1Zr1,10.1038/s41524-023-00993-x,,,,1315,,,
Hf1Nb1Ti1V1Zr1,10.1038/s41524-023-00993-x,,,,1253,,,
Hf1Nb1Ti1V1Zr1,10.1038/s41524-023-00993-x,,,,1140,,,
Hf1Nb1Ti1V1Zr1,10.1038/s41524-023-00993-x,,,,1120,,,
Hf1Nb1Ti1Zr1,10.1038/s41524-023-00993-x,,,,879,,,
Hf1Nb1Ti1Zr1,10.1038/s41524-023-00993-x,,,,1000,,,
Hf1Ta1Ti1Zr1,10.1038/s41524-023-00993-x,,,,1500,,,
Mo0.1Nb1Ti1V0.3Zr1,10.1038/s41524-023-00993-x,,,,932,,,
Mo0.3Nb1Ti1V0.3Zr1,10.1038/s41524-023-00993-x,,,,1312,,,
Mo0.3Nb1Ti1V1Zr1,10.1038/s41524-023-00993-x,,,,1289,,,
"Mo0.333Nb0.333Ti0.333V1Zr0.333",10.1038/s41524-023-00993-x,,,,1418,,,
Mo0.5Nb0.5Ti0.5V1Zr0.5,10.1038/s41524-023-00993-x,,,,1538,,,
Mo0.5Nb1Ti1V0.3Zr1,10.1038/s41524-023-00993-x,,,,1301,,,
Mo0.5Nb1Ti1V1Zr1,10.1038/s41524-023-00993-x,,,,1473,,,
"Mo0.667Nb0.667Ti0.667V1Zr0.667",10.1038/s41524-023-00993-x,,,,1735,,,
Mo0.7Nb1Ti1V0.3Zr1,10.1038/s41524-023-00993-x,,,,1436,,,
Mo0.7Nb1Ti1V1Zr1,10.1038/s41524-023-00993-x,,,,1706,,,
Mo1Nb0.5Ti0.5V0.5Zr0.5,10.1038/s41524-023-00993-x,,,,1765,,,
"Mo1Nb0.588Ti0.588V0.588Zr0.588",10.1038/s41524-023-00993-x,,,,1645,,,
"Mo1Nb0.667Ti0.667V0.2Zr0.667",10.1038/s41524-023-00993-x,,,,1576,,,
"Mo1Nb0.667Ti0.667V0.667Zr0.667",10.1038/s41524-023-00993-x,,,,1603,,,
"Mo1Nb0.769Ti0.769V0.231Zr0.769",10.1038/s41524-023-00993-x,,,,1603,,,
"Mo1Nb0.769Ti0.769V0.769Zr0.769",10.1038/s41524-023-00993-x,,,,1496,,,
Mo1Nb1Re0.5W1,10.1038/s41524-023-00993-x,,,,896,,,
Mo1Nb1Ta1Ti0.25W1,10.1038/s41524-023-00993-x,,,,1109,,,
Mo1Nb1Ta1Ti0.5W1,10.1038/s41524-023-00993-x,,,,1211,,,
Mo1Nb1Ta1Ti0.75W1,10.1038/s41524-023-00993-x,,,,1304,,,
Mo1Nb1Ta1Ti1,10.1038/s41524-023-00993-x,,,,1210,,,
Mo1Nb1Ta1Ti1V1,10.1038/s41524-023-00993-x,,,,1400,,,
Mo1Nb1Ta1Ti1V1W1,10.1038/s41524-023-00993-x,,,,1515,,,
Mo1Nb1Ta1Ti1W1,10.1038/s41524-023-00993-x,,,,1343,,,
Mo1Nb1Ta1Ti1W1,10.1038/s41524-023-00993-x,,,,1455,,,
Mo1Nb1Ta1V1,10.1038/s41524-023-00993-x,,,,1525,,,
Mo1Nb1Ta1V1W1,10.1038/s41524-023-00993-x,,,,1246,,,
Mo1Nb1Ta1W1,10.1038/s41524-023-00993-x,,,,1058,,,
Mo1Nb1Ta1W1,10.1038/s41524-023-00993-x,,,,996,,,
Mo1Nb1Ti1V0.25Zr1,10.1038/s41524-023-00993-x,,,,1776,,,
Mo1Nb1Ti1V0.3Zr1,10.1038/s41524-023-00993-x,,,,1455,,,
Mo1Nb1Ti1V0.5Zr1,10.1038/s41524-023-00993-x,,,,1647,,,
Mo1Nb1Ti1V0.75Zr1,10.1038/s41524-023-00993-x,,,,1708,,,
Mo1Nb1Ti1V1,10.1038/s41524-023-00993-x,,,,1200,,,
Mo1Nb1Ti1V1Zr1,10.1038/s41524-023-00993-x,,,,1786,,,
Mo1Nb1Ti1V1Zr1,10.1038/s41524-023-00993-x,,,,1779,,,
Mo1Nb1Ti1Zr1,10.1038/s41524-023-00993-x,,,,1592,,,
Mo1Ta1Ti1V1,10.1038/s41524-023-00993-x,,,,1221,,,
Nb1Ta1Ti1,10.1038/s41524-023-00993-x,,,,620,,,
Nb1Ta1Ti1V1,10.1038/s41524-023-00993-x,,,,1092,,,
Nb1Ta1Ti1V1,10.1038/s41524-023-00993-x,,,,965,,,
Nb1Ta1Ti1V1W1,10.1038/s41524-023-00993-x,,,,1420,,,
Nb1Ta1Ti1W1,10.1038/s41524-023-00993-x,,,,1054,,,
Nb1Ta1Ti1Zr1,10.1038/s41524-023-00993-x,,,,1144,,,
Nb1Ta1V1W1,10.1038/s41524-023-00993-x,,,,1530,,,
Nb1Ti1V0.3Zr1,10.1038/s41524-023-00993-x,,,,866,,,
Nb1Ti1V1Zr1,10.1038/s41524-023-00993-x,,,,1104,,,
Nb1Ti1Zr1,10.1038/s41524-023-00993-x,,,,1223,,,
Nb1Ti1Zr1,10.1038/s41524-023-00993-x,,,,956,,,
Al0.5NbTa0.8Ti1.5V0.2Zr,10.1038/s41598-018-27144-3,,,,2032,,,C
Al0.5NbTa0.8Ti1.5V0.2Zr,10.1038/s41598-018-27144-3,,,,1065,,,C
Al0.5NbTa0.8Ti1.5V0.2Zr,10.1038/s41598-018-27144-3,,,,1345,,,C
CoCrFeNi,10.1016/j.matchar.2012.05.005,,,,136,,,
CoCrFeNiMo0.3,10.1016/j.matchar.2012.05.005,,,,305,,,
CoCrFeNiMo0.5,10.1016/j.matchar.2012.05.005,,,,510,,,
CoCrFeNiMo0.85,10.1016/j.matchar.2012.05.005,,,,929,,,
CoCrFeNi,10.1016/j.msea.2012.06.075,,,,136,,,
CoCrFeNiTi0.3,10.1016/j.msea.2012.06.075,,,,648,,,
CoCrFeNiTi0.5,10.1016/j.msea.2012.06.075,,,,898,,,
Ti20Zr20Hf20Cu20Ni20,10.1016/j.jnoncrysol.2013.01.022,,,,1920,,,
Zn20Ca20Sr20Yb20(Li0.55 Mg0.45)20,10.1016/j.jnoncrysol.2013.01.022,,,,500,,,
Sr20Ca20Yb20Mg20Zn20,10.1016/j.jnoncrysol.2013.01.022,,,,500,,,
Sr20Ca20Yb20Mg20(Zn0.5Cu0.5)20,10.1016/j.jnoncrysol.2013.01.022,,,,500,,,
Ti20Zr20Cu20Ni20Be20,10.1016/j.jnoncrysol.2013.01.022,,,,2315,,,
Zr41.2Ti13.8Cu12.5Ni10Be22.5(Vit1),10.1016/j.jnoncrysol.2013.01.022,,,,1737,,,
Ti40Zr25Cu12Ni3Be20,10.1016/j.jnoncrysol.2013.01.022,,,,1680,,,
Ti45Zr16Cu10Ni9Be20,10.1016/j.jnoncrysol.2013.01.022,,,,2105,,,
Ti32.8Zr30.2Cu5.3Ni9Be22.7,10.1016/j.jnoncrysol.2013.01.022,,,,1831,,,
Ti55Zr10Cu9Ni8Be18,10.1016/j.jnoncrysol.2013.01.022,,,,2050,,,
AlCrFeNi,10.1016/j.jallcom.2013.03.253,,,,1406.2,,,
AlCrFeNiMo0.2,10.1016/j.jallcom.2013.03.253,,,,1487.4,,,
AlCrFeNiMo0.5,10.1016/j.jallcom.2013.03.253,,,,1748.6,,,
AlCrFeNiMo0.8,10.1016/j.jallcom.2013.03.253,,,,1512.5,,,
Ca20Mg20Zn20Sr20Yb20,10.1016/j.actbi0.2013.01.029,,,19.4,370.7,,,
Ca65Mg15Zn20,10.1016/j.actbi0.2013.01.029,,,22.3,300,,,
AlCoCrFeNi,10.1016/j.matdes.2013.12.048,,,,1378.9,,,C
AlCoCrFeNiV0.2,10.1016/j.matdes.2013.12.048,,,,1492.4,,,C
AlCoCrFeNiV0.5,10.1016/j.matdes.2013.12.048,,,,1597.7,,,C
AlCoCrFeNiV0.8,10.1016/j.matdes.2013.12.048,,,,1695.8,,,C
AlCoCrFeNiV1.0,10.1016/j.matdes.2013.12.048,,,,1726.5,,,C
Ti20Zr20Hf20Nb20V20,10.1016/j.ijrmhm.2014.07.009,BCC + u,,128,1170,,,C
Ti20Zr20Hf20Nb20V20,10.1016/j.ijrmhm.2014.07.009,BCC + V2M,,128,,1157,,C
Ti20Zr20Hf20Nb20Cr20,10.1016/j.ijrmhm.2014.07.009,BCC + L1 + L2,,112,1375,,,C
Ti20Zr20Hf20Nb20Cr20,10.1016/j.ijrmhm.2014.07.009,BCC + L1 + L2,,112,,1328,,C
Ti20Zr20Hf20Nb20Ta20 [3],10.1016/j.ijrmhm.2014.07.009,BCC,,,929,,,C
W20Nb20Mo20Ta20 [4],10.1016/j.ijrmhm.2014.07.009,BCC,,,1058,,,C
W20Nb20Mo20Ta20V20 [3],10.1016/j.ijrmhm.2014.07.009,BCC,,,1246,,,C
Al0.6CoFeNi,10.1016/j.msea.2014.09.077,,,,2200,,,C
Al0.5CoCrCuFeNi,10.1016/j.jallcom.2013.08.176,FCC,,,400,,,
Al0.5CoCrCuFeNi,10.1016/j.jallcom.2013.08.176,FCC,,,1400,,,
Al0.5CoCrCuFeNi,10.1016/j.jallcom.2013.08.176,FCC,,,380,150,70,
AlCoCrCuFeNi,10.1016/j.jallcom.2013.08.176,FCC + BCC,,,950,,,
AlCoCrCuFeNi,10.1016/j.jallcom.2013.08.176,BCC + FCC,,,515,369,,
AlCoCrCuFeNi,10.1016/j.jallcom.2013.08.176,FCC + BCC,,,1850,930,,
AlCoCrCuFeNi,10.1016/j.jallcom.2013.08.176,FCC + BCC,,,950,50,,
Al1.3CoCrCuFeNi,10.1016/j.jallcom.2013.08.176,BCC + FCC,,,1620,,,
Al2CoCrCuFeNi,10.1016/j.jallcom.2013.08.176,FCC + BCC,,,1620,,,
Al2CoCrCuFeNi,10.1016/j.jallcom.2013.08.176,FCC + BCC,,,1600,120,90,
Al0.45CoCrCuFeNi,10.1016/j.jallcom.2013.08.176,,7.403,,335,,,
AlCoCrCuFeNi,10.1016/j.jallcom.2013.08.176,,7.526,,332,,,
Al2.5CoCrCuFeNi,10.1016/j.jallcom.2013.08.176,,6.506,,285,,,
Al5CoCrCuFeNi,10.1016/j.jallcom.2013.08.176,,5.62,,344,,,
Al0.75NiFeCrCo,10.1016/j.msea.2015.08.056,,,,1938,,,
Al0.75NiFeCr,10.1016/j.msea.2015.08.056,,,,1741,,,
Al0.75NiFeCrCoTi0.25,10.1016/j.msea.2015.08.056,,,,1926,,,
Al25Ti25,10.1016/j.apsusc.2015.07.207,FCC,,108,300,,,
Ni25Cu25,10.1016/j.apsusc.2015.07.207,,,,,1103,,
Al22.5Ti22.5,10.1016/j.apsusc.2015.07.207,FCC1+FCC2,,145,980,,,
Ni20Cu20Fe15,10.1016/j.apsusc.2015.07.207,,,,,737,,
Al20Ti20,10.1016/j.apsusc.2015.07.207,FCC1+FCC2,,146,1074,,,
Ni20Cu20Fe20,10.1016/j.apsusc.2015.07.207,,,,,697,,
Al0.6NiFeCrCo,10.1016/j.jallcom.2015.04.238,,,,1870,,,
Al0.6NiFeCrCo,10.1016/j.jallcom.2015.04.238,,,,1830,,,
Al0.6NiFeCr,10.1016/j.jallcom.2015.04.238,,,,1607,,,
Al0.6NiFeCr,10.1016/j.jallcom.2015.04.238,,,,1420,,,
Co20Ni20Fe20Al20Ti20,10.1016/j.msea.2015.07.052,,,,2988,,,
Co0.5NiFeCrTi0.5,10.1016/j.msea.2015.07.052,,,,2690,,,
CoNiFeCrAl0.6Ti0.4,10.1016/j.msea.2015.07.052,,,,2520,,,
AlFeNiCoCrMn,10.1016/j.msea.2015.07.052,,,,2142,,,
Co0.3NiFeCrAl0.7,10.1016/j.msea.2015.07.052,,,,2635,,,
Al0.5CrFeNiCo0.3C0.2,10.1016/j.msea.2015.07.052,,,,2131,,,
CoCrFeNiAl,10.1016/j.msea.2015.07.052,,,,1907,,,
FeNiCoCrMn,10.1016/j.msea.2015.07.052,,,,1987,,,
Nb20Ni20Ti20Co20Zr20,10.1016/j.pnsc.2015.09.001,,,,,60,,
[CuMnNi]95Al5,10.1016/j.jallcom.2015.07.285,,,,330,,,
[CuMnNi]90Al10,10.1016/j.jallcom.2015.07.285,,,,515,,,
[CuMnNi]95Sn5,10.1016/j.jallcom.2015.07.285,,,,380,,,
[CuMnNi]90Sn10,10.1016/j.jallcom.2015.07.285,,,,620,,,
[CuMnNi]80Zn20,10.1016/j.jallcom.2015.07.285,,,,140,,,
[CuMnNi]75Zn25,10.1016/j.jallcom.2015.07.285,,,,215,,,
HfNbTaTiZr,10.1016/j.jallcom.2014.11.064,,,55,1073,,,
Al0.3HfNbTaTiZr,10.1016/j.jallcom.2014.11.064,,,63,1188,,,
Al0.5HfNbTaTiZr,10.1016/j.jallcom.2014.11.064,,,97,1302,,,
Al0.75HfNbTaTiZr,10.1016/j.jallcom.2014.11.064,,,102,1415,,,
AlHfNbTaTiZr,10.1016/j.jallcom.2014.11.064,,,103,1489,,,
CoCrFeNiNb0,10.1016/j.intermet.2015.01.004,FCC,,,147,,,
CoCrFeNiNb0.103,10.1016/j.intermet.2015.01.004,FCC + Laves,,,317,,,
CoCrFeNiNb0.155,10.1016/j.intermet.2015.01.004,FCC + Laves,,,321,,,
CoCrFeNiNb0.206,10.1016/j.intermet.2015.01.004,FCC + Laves,,,402,,,
CoCrFeNiNb0.309,10.1016/j.intermet.2015.01.004,FCC + Laves,,,478,,,
CoCrFeNiNb0.412,10.1016/j.intermet.2015.01.004,FCC + Laves,,,637,,,
Al0.5CrFeNiTi0.25,10.1016/j.jallcom.2014.09.073,,,,1880,,,
AlCoCrFeNi,10.1016/j.jallcom.2014.09.073,,,,1423,,,
AlCoCrFeNiTi0.5,10.1016/j.jallcom.2014.09.073,,,,2260,,,
AlCoCrFeNiTi0,10.1016/j.jallcom.2014.09.073,,,,1500,,,
CuCoFeNiCrTi0.5,10.1016/j.jallcom.2014.09.073,,,,700,,,
Cu48Zr48Al4,10.1016/j.jallcom.2014.09.073,,,,1200,,,
CuCoFeNiCrAlV,10.1016/j.jallcom.2014.09.073,,,,1469,,,
CuCoFeNiCrAl,10.1016/j.jallcom.2014.09.073,,,,1303,,,
NbMoTaW,10.1016/j.jallcom.2014.09.073,,,,1058,,,
FeCoNi(AlSi)0.3,10.1016/j.jallcom.2014.09.073,,,,938,,,
FeCoNi(AlSi)0.2,10.1016/j.jallcom.2014.09.073,,,,342,,,
AlCoCrFeNiTi0.3,10.1016/j.jallcom.2014.09.073,,,,1980,,,
CrFeNiTi0.25,10.1016/j.jallcom.2014.09.073,A1,,,1309.9,,,
CrFeNiTi0.25,10.1016/j.jallcom.2014.09.073,A2,,,1309.9,,,
CrFeNiTi0.25,10.1016/j.jallcom.2014.09.073,Ni3Ti_D024,,,1309.9,,,
Al0.25CrFeNiTi0.25,10.1016/j.jallcom.2014.09.073,A1,,,1390.8,,,
Al0.25CrFeNiTi0.25,10.1016/j.jallcom.2014.09.073,A2,,,1390.8,,,
Al0.25CrFeNiTi0.25,10.1016/j.jallcom.2014.09.073,H_L21,,,1390.8,,,
Al0.25CrFeNiTi0.25,10.1016/j.jallcom.2014.09.073,Ni3Ti_D024,,,1390.8,,,
Al0.5CrFeNiTi0.25,10.1016/j.jallcom.2014.09.073,A1,,,1879.8,,,
Al0.5CrFeNiTi0.25,10.1016/j.jallcom.2014.09.073,A2,,,1879.8,,,
Al0.5CrFeNiTi0.25,10.1016/j.jallcom.2014.09.073,B2,,,1879.8,,,
Al0.5CrFeNiTi0.25,10.1016/j.jallcom.2014.09.073,H_L21,,,1879.8,,,
Al0.75CrFeNiTi0.25,10.1016/j.jallcom.2014.09.073,A2,,,1726.1,,,
Al0.75CrFeNiTi0.25,10.1016/j.jallcom.2014.09.073,B2,,,1726.1,,,
Al0.75CrFeNiTi0.25,10.1016/j.jallcom.2014.09.073,H_L21,,,1726.1,,,
AlCrFeNiTi0.25,10.1016/j.jallcom.2014.09.073,A2,,,1444.7,,,
AlCrFeNiTi0.25,10.1016/j.jallcom.2014.09.073,B2,,,1444.7,,,
AlCrFeNiTi0.25,10.1016/j.jallcom.2014.09.073,H_L21,,,1444.7,,,
Ti20Zr20Hf20Cu20Ni20,10.1016/j.intermet.2015.06.015,HE-BMG,,,1920,,,
Zn20Ca20Sr20Yb20(Li0.55Mg0.45)20,10.1016/j.intermet.2015.06.015,HE-BMG,,,383,,,
Sr20Ca20Yb20Mg20Zn20,10.1016/j.intermet.2015.06.015,HE-BMG,,,382,,,
Sr20Ca20Yb20Mg20(Zn0.5Cu0.5)20,10.1016/j.intermet.2015.06.015,HE-BMG,,,423,,,
Ti20Zr20Cu20Ni20Be20,10.1016/j.intermet.2015.06.015,HE-BMG,,,2315,,,
Ti16.7Zr16.7Hf16.7Cu16.7Ni16.7Be16.7,10.1016/j.intermet.2015.06.015,HE-BMG,,,1943,,,
Fe25Co25Ni25Al25,10.1016/j.intermet.2015.06.015,FCC,,,967,,,
FeCoNi(AlSi)0.2,10.1016/j.intermet.2015.06.015,FCC,,,342,,,
Fe25Co25Ni25(B0.6Si0.4)25,10.1016/j.intermet.2015.06.015,HE-BMG,,,3239,,,
Fe25Co25Ni25(B0.7Si0.3)25,10.1016/j.intermet.2015.06.015,HE-BMG,,,3624,,,
Fe25Co25Ni25(B0.6Si0.4)25,10.1016/j.intermet.2015.06.015,,,,3239,,,
Fe25Co25Ni25(B0.7Si0.3)25,10.1016/j.intermet.2015.06.015,,,,3624,,,
AlNbTiV,10.1016/j.jallcom.2015.08.224,,5.5,,1000,110,,
AlCr0.5NbTiV,10.1016/j.jallcom.2015.08.224,,5.64,,1300,40,,
AlCrNbTiV,10.1016/j.jallcom.2015.08.224,,5.76,,1550,65,,
AlCr1.5NbTiV,10.1016/j.jallcom.2015.08.224,,5.86,,1700,75,,
Fe40Mn28Ni28Cr4,10.1016/j.matdes.2015.08.007,,,,,210,,
Fe40Mn28Ni20Cr12,10.1016/j.matdes.2015.08.007,,,,,245,,
Fe40Mn28Ni14Cr18,10.1016/j.matdes.2015.08.007,,,,,310,,
Al0.5CoCrCuFeNi,10.1016/j.actamat.2015.07.004,FCC-1 + FCC-2,,,1284,,,
TiZrNbV,10.1016/j.matdes.2015.06.072,,6.46,,1104,,,
TiZrNbVMo0.3,10.1016/j.matdes.2015.06.072,,6.69,,1289,,,
TiZrNbVMo0.5,10.1016/j.matdes.2015.06.072,,6.83,,1473,,,
TiZrNbVMo0.7,10.1016/j.matdes.2015.06.072,,6.96,,1706,,,
TiZrNbVMo1.0,10.1016/j.matdes.2015.06.072,,7.13,,1779,,,
TiZrNbVMo1.3,10.1016/j.matdes.2015.06.072,,7.29,,1496,,,
TiZrNbVMo1.5,10.1016/j.matdes.2015.06.072,,7.38,,1603,,,
TiZrNbVMo1.7,10.1016/j.matdes.2015.06.072,,7.48,,1645,,,
TiZrNbVMo2.0,10.1016/j.matdes.2015.06.072,,7.6,,1765,,,
TiZrNbV0.3,10.1016/j.matdes.2015.06.072,,6.51,,866,,,
TiZrNbV0.3Mo0.1,10.1016/j.matdes.2015.06.072,,6.6,,932,,,
TiZrNbV0.3Mo0.3,10.1016/j.matdes.2015.06.072,,6.77,,1312,,,
TiZrNbV0.3Mo0.5,10.1016/j.matdes.2015.06.072,,6.93,,1301,,,
TiZrNbV0.3Mo0.7,10.1016/j.matdes.2015.06.072,,7.07,,1436,,,
TiZrNbV0.3Mo1.0,10.1016/j.matdes.2015.06.072,,7.26,,1455,,,
TiZrNbV0.3Mo1.3,10.1016/j.matdes.2015.06.072,,7.43,,1603,,,
TiZrNbV0.3Mo1.5,10.1016/j.matdes.2015.06.072,,7.53,,1576,,,
AlCoCrFeNiTi0.5,10.1016/j.matdes.2015.06.072,,6.44,,2260,,,
AlCrFeCoNi,10.1016/j.matdes.2015.06.072,,6.72,,1251,,,
CrFeCoNiCuTi0.8,10.1016/j.matdes.2015.06.072,,7.58,,1042,,,
CrFeCoNiCuTi0.5,10.1016/j.matdes.2015.06.072,,7.82,,700,,,
CrFeCoNiCu,10.1016/j.matdes.2015.06.072,,8.33,,230,,,
AlCrFeCoNiCu,10.1016/j.matdes.2015.06.072,,7.07,,1303,,,
AlCrFeCoNiCuV,10.1016/j.matdes.2015.06.072,,6.92,,1469,,,
Cu0.25AlCoCrFeNiTi0.5,10.1016/j.matdes.2015.06.072,,6.54,,1994,,,
AlCoCrFeNiMo0.1,10.1016/j.matdes.2015.06.072,,6.45,,1804,,,
AlCoCrFeNiSi0.2,10.1016/j.matdes.2015.06.072,,6.92,,1265,,,
AlCoCrFeNiSi0.4,10.1016/j.matdes.2015.06.072,,6.22,,1481,,,
TaNbHfZrTi,10.1016/j.matdes.2015.06.072,,9.9,,929,,,
NbMoTaW,10.1016/j.matdes.2015.06.072,,13.64,,1058,,,
VNbMoTaW,10.1016/j.matdes.2015.06.072,,12.36,,1246,,,
NbCrMo0.5Ta0.5TiZr,10.1016/j.matdes.2015.06.072,,8,,1595,,,
CrNbTiZr,10.1016/j.matdes.2015.06.072,,6.64,,1260,,,
CrNbTiVZr,10.1016/j.matdes.2015.06.072,,6.56,,1289,,,
AlMo0.5NbTa0.5TiZr,10.1016/j.matdes.2015.06.072,,7.3,,2000,,,
AlNb1.5Ta0.5Ti1.5Zr0.5,10.1016/j.matdes.2015.06.072,,6.8,,1280,,,
Al0.4Hf0.6NbTaTiZr,10.1016/j.matdes.2015.06.072,,9,,1841,,,
Al0.3NbTaTi1.4Zr1.3,10.1016/j.matdes.2015.06.072,,8.1,,1965,,,
Al0.3NbTa0.8Ti1.4V0.2Zr1.3,10.1016/j.matdes.2015.06.072,,7.6,,1965,,,
Al0.5NbTa0.8Ti1.5V0.2Zr,10.1016/j.matdes.2015.06.072,,7.3,,2035,,,
Ni18.5Fe18.5Cr18.5Co26Mn18.5,10.1016/j.msea.2015.03.109,,,,,134,,
Ni14Fe20Cr26Co20Mn20,10.1016/j.msea.2015.03.109,,,,,162,,
NiFeCrCoMn,10.1016/j.msea.2015.03.109,,,,,135,,
NiFeCrCo,10.1016/j.msea.2015.03.109,,,,,197,,
Ni18.5Fe18.5Cr18.5Co26Mn18.5,10.1016/j.msea.2015.03.109,,,,586,,,
Ni14Fe20Cr26Co20Mn20,10.1016/j.msea.2015.03.109,,,,1153,,,
NiFeCrCoMn,10.1016/j.msea.2015.03.109,,,,660,,,
NiFeCrCo,10.1016/j.msea.2015.03.109,,,,540,,,
Fe70.04Mn28Al1.6Si0.28C0.08,10.1016/j.msea.2015.03.109,,,,325,,,
Fe73.03Mn25Al1.6Si0.24Nb0.05C0.08,10.1016/j.msea.2015.03.109,,,,375.5,,,
Fe68.25Mn27Al4.1Si0.52Nb0.05C0.08,10.1016/j.msea.2015.03.109,,,,383,,,
Ti20Zr20Hf20Be20Cu20,10.1016/j.intermet.2015.02.011,,,,1889,,,
Ti16.7Zr16.7Hf16.7Be16.7Cu16.7Ni16.7,10.1016/j.intermet.2015.02.011,,,,1943,,,
Ti20Zr20Hf20Be20(Cu20),10.1016/j.matdes.2015.08.067,,,97.3,1889,,,
Ti20Zr20Hf20Be20(Cu17.5Ni2.5),10.1016/j.matdes.2015.08.067,,,101.3,1943,,,
Ti20Zr20Hf20Be20(Cu15Ni5),10.1016/j.matdes.2015.08.067,,,102.8,1992,,,
Ti20Zr20Hf20Be20(Cu12.5Ni7.5),10.1016/j.matdes.2015.08.067,,,106.3,2005,,,
Ti20Zr20Hf20Be20(Cu10Ni10),10.1016/j.matdes.2015.08.067,,,104.6,2019,,,
Ti20Zr20Hf20Be20(Cu7.5Ni12.5),10.1016/j.matdes.2015.08.067,,,104.9,2067,,,
Ti20Zr20Hf20Be20(Cu5Ni15),10.1016/j.matdes.2015.08.067,,,104,2088,,,
Ti20Zr20Hf20Be20(Cu2.5Ni17.5),10.1016/j.matdes.2015.08.067,,,105.6,2094,,,
Ti20Zr20Hf20Be20(Ni20),10.1016/j.matdes.2015.08.067,,,104.7,2142,,,
FeCoCrNiMo0.23,10.1016/j.actamat.2017.01.034,,,,378,,,
FeCoCrNiMo0.23,10.1016/j.actamat.2017.01.034,,,,350,,,
FeCoCrNi,10.1016/j.actamat.2017.01.034,,,,359,,,
FeCoCrNiMo0.2,10.1016/j.actamat.2017.01.034,,,,254.7,,,
FeNiCoCrMn,10.1016/j.actamat.2017.01.034,,,,165,,,
FeCoCrNi,10.1016/j.actamat.2017.01.034,,,,155,,,
FeCoCrMnNi,10.1016/j.actamat.2017.01.034,,,,265,,,
AlCoCrCuFeNi,10.1016/j.jallcom.2010.03.074,,,,1300,,,
AlCoCrCuFeNiMo0.2,10.1016/j.jallcom.2010.03.074,,,,1420,,,
AlCoCrCuFeNiMo0.4,10.1016/j.jallcom.2010.03.074,,,,1690,,,
AlCoCrCuFeNiMo0.6,10.1016/j.jallcom.2010.03.074,,,,1880,,,
AlCoCrCuFeNiMo0.8,10.1016/j.jallcom.2010.03.074,,,,1920,,,
AlCoCrCuFeNiMo,10.1016/j.jallcom.2010.03.074,,,,1750,,,
(TiZrNbCu)0.875Ni0.125,10.1016/j.jallcom.2016.11.179,,7.04,,89.6,,,
(TiZrNbCu)0.85Ni0.15,10.1016/j.jallcom.2016.11.179,,7.1,,93.7,,,
(TiZrNbCu)0.8Ni0.2,10.1016/j.jallcom.2016.11.179,,7.16,,98.2,,,
(TiZrNbCu)0.75Ni0.25,10.1016/j.jallcom.2016.11.179,,7.17,,103.8,,,