Composition,doi,Phase,Density (g/cm3),Hardness (GPa),YS (MPa) at 23 C,YS (MPa) at 1000 C,YS (MPa) at 1200 C,Test Type
Ti42.5Zr42.5Nb10Ta5,10.1016/j.msea.2024.147375,BCC,,,670,,,
(Ti42.5Zr42.5Nb10Ta5)97Mo3,10.1016/j.msea.2024.147375,BCC,,,828,,,
Ti60Zr10(MoNbTaVW)30,10.1016/j.msea.2024.147222,FCC+BCC,,,298,,,T
Ti55Zr10(MoNbTaVW)35,10.1016/j.msea.2024.147222,FCC+BCC,,,422,,,T
Ti50Zr10(MoNbTaVW)40,10.1016/j.msea.2024.147222,FCC+BCC,,,551,,,T
Ti45Zr10(MoNbTaVW)45,10.1016/j.msea.2024.147222,FCC+BCC,,,729,,,T
Ti60Zr10(MoNbTaVW)30,10.1016/j.msea.2024.147222,FCC+BCC,,,484,,,C
Ti55Zr10(MoNbTaVW)35,10.1016/j.msea.2024.147222,FCC+BCC,,,600,,,C
Ti50Zr10(MoNbTaVW)40,10.1016/j.msea.2024.147222,FCC+BCC,,,753,,,C
Ti45Zr10(MoNbTaVW)45,10.1016/j.msea.2024.147222,FCC+BCC,,,926,,,C
NbMoTaW0.2,10.1016/j.jallcom.2024.174390,BCC,12.423,,1621,,,C
NbMoTaW0.4,10.1016/j.jallcom.2024.174390,BCC,12.689,,1662,,,C
NbMoTaW0.6,10.1016/j.jallcom.2024.174390,BCC,12.617,,1683,,,C
NbMoTaW0.8,10.1016/j.jallcom.2024.174390,BCC,13.284,,1699,,,C
NbMoTaW1.0,10.1016/j.jallcom.2024.174390,BCC,13.643,,1732,,,C
CoCrFeMnNi,10.1016/j.jmrt.2024.11.022,FCC,,,545,,,T
CoCrFeMnNi,10.1016/j.jmrt.2024.11.022,FCC,,,531,,,T
CoCrFeMnNi,10.1016/j.jmrt.2024.11.022,FCC,,,570,,,T
CoCrFeMnNi,10.1016/j.jmrt.2024.11.022,FCC,,,562,,,T
CoCrFeMnNi,10.1016/j.jmrt.2024.11.022,FCC,,,542,,,T
Cr5.84Mo4.82Al4.22V4.95,10.1016/j.compositesb.2024.111449,,,,1332,,,T
Cr5.81Mo4.84Al4.21V5.01B0.05,10.1016/j.compositesb.2024.111449,,,,1002,,,T
Cr5.86Mo4.79Al4.23V4.97B0.11,10.1016/j.compositesb.2024.111449,,,,1057,,,T
Cr5.84Mo4.82Al4.22V4.95,10.1016/j.compositesb.2024.111449,,,,1396,,,T
Cr5.81Mo4.84Al4.21V5.01B0.05,10.1016/j.compositesb.2024.111449,,,,1375,,,T
Cr5.86Mo4.79Al4.23V4.97B0.11,10.1016/j.compositesb.2024.111449,,,,1370,,,T
Cr5.84Mo4.82Al4.22V4.95,10.1016/j.compositesb.2024.111449,,,,1407,,,T
Cr5.81Mo4.84Al4.21V5.01B0.05,10.1016/j.compositesb.2024.111449,,,,1413,,,T
Cr5.86Mo4.79Al4.23V4.97B0.11,10.1016/j.compositesb.2024.111449,,,,1473,,,T